# vtk DataFile Version 4.0
vtk output
ASCII
DATASET POLYDATA
POINTS 252 float
34 -6 45.8579 34 -6.19708 46 34.1971 -6 46 
32 -6 45.4003 32 -6.82671 46 30 -6 45.8579 
30 -6.19708 46 29.8029 -6 46 34 -4 45.4003 
34.8267 -4 46 32 -4 45 30 -4 45.4003 
29.1733 -4 46 34 -2 45.8579 34.1971 -2 46 
32 -2 45.4003 30 -2 45.8579 29.8029 -2 46 
34 -1.80292 46 32 -1.17329 46 30 -1.80292 46 
34 -8 47.8029 34 -8.1421 48 34.1971 -8 48 
32 -8 47.1733 32 -8.59972 48 30 -8 47.8029 
30 -8.1421 48 29.8029 -8 48 36 -6 47.8029 
36 -6.19708 48 36.1421 -6 48 28 -6 47.8029 
28 -6.19708 48 27.8579 -6 48 36 -4 47.1733 
36.5997 -4 48 28 -4 47.1733 27.4003 -4 48 
36 -2 47.8029 36.1421 -2 48 28 -2 47.8029 
27.8579 -2 48 36 -1.80292 48 34 0 47.8029 
34.1971 0 48 32 0 47.1733 30 0 47.8029 
29.8029 0 48 28 -1.80292 48 34 0.142097 48 
32 0.59972 48 30 0.142097 48 34 -8.59972 50 
34.8267 -8 50 32 -9 50 30 -8.59972 50 
29.1733 -8 50 36 -6.82671 50 36.5997 -6 50 
28 -6.82671 50 27.4003 -6 50 -24 -6 49.8579 
-24 -6.19708 50 -23.8029 -6 50 -26 -6 49.4003 
-26 -6.82671 50 -28 -6 49.8579 -28 -6.19708 50 
-28.1971 -6 50 37 -4 50 27 -4 50 
-24 -4 49.4003 -23.1733 -4 50 -26 -4 49 
-28 -4 49.4003 -28.8267 -4 50 36.5997 -2 50 
27.4003 -2 50 -24 -2 49.8579 -23.8029 -2 50 
-26 -2 49.4003 -28 -2 49.8579 -28.1971 -2 50 
36 -1.17329 50 34.8267 0 50 29.1733 0 50 
28 -1.17329 50 -24 -1.80292 50 -26 -1.17329 50 
-28 -1.80292 50 34 0.59972 50 32 1 50 
30 0.59972 50 34 -8.1421 52 34.1971 -8 52 
32 -8.59972 52 30 -8.1421 52 29.8029 -8 52 
-24 -8 51.8029 -24 -8.1421 52 -23.8029 -8 52 
-26 -8 51.1733 -26 -8.59972 52 -28 -8 51.8029 
-28 -8.1421 52 -28.1971 -8 52 36 -6.19708 52 
36.1421 -6 52 28 -6.19708 52 27.8579 -6 52 
-22 -6 51.8029 -22 -6.19708 52 -21.8579 -6 52 
-30 -6 51.8029 -30 -6.19708 52 -30.1421 -6 52 
36.5997 -4 52 27.4003 -4 52 -22 -4 51.1733 
-21.4003 -4 52 -30 -4 51.1733 -30.5997 -4 52 
36.1421 -2 52 27.8579 -2 52 -22 -2 51.8029 
-21.8579 -2 52 -30 -2 51.8029 -30.1421 -2 52 
36 -1.80292 52 34.1971 0 52 29.8029 0 52 
28 -1.80292 52 -22 -1.80292 52 -24 0 51.8029 
-23.8029 0 52 -26 0 51.1733 -28 0 51.8029 
-28.1971 0 52 -30 -1.80292 52 34 0.142097 52 
32 0.59972 52 30 0.142097 52 -24 0.142097 52 
-26 0.59972 52 -28 0.142097 52 34 -8 52.1971 
32 -8 52.8267 30 -8 52.1971 -24 -8.59972 54 
-23.1733 -8 54 -26 -9 54 -28 -8.59972 54 
-28.8267 -8 54 36 -6 52.1971 34.1971 -6 54 
34 -6.19708 54 32 -6.82671 54 30 -6.19708 54 
28 -6 52.1971 29.8029 -6 54 -22 -6.82671 54 
-21.4003 -6 54 -30 -6.82671 54 -30.5997 -6 54 
36 -4 52.8267 34.8267 -4 54 28 -4 52.8267 
29.1733 -4 54 -21 -4 54 -31 -4 54 
36 -2 52.1971 34.1971 -2 54 28 -2 52.1971 
29.8029 -2 54 -21.4003 -2 54 -30.5997 -2 54 
34 -1.80292 54 34 0 52.1971 32 -1.17329 54 
32 0 52.8267 30 -1.80292 54 30 0 52.1971 
-22 -1.17329 54 -23.1733 0 54 -28.8267 0 54 
-30 -1.17329 54 -24 0.59972 54 -26 1 54 
-28 0.59972 54 -24 -8.1421 56 -23.8029 -8 56 
-26 -8.59972 56 -28 -8.1421 56 -28.1971 -8 56 
34 -6 54.1421 32 -6 54.5997 30 -6 54.1421 
-22 -6.19708 56 -21.8579 -6 56 -30 -6.19708 56 
-30.1421 -6 56 34 -4 54.5997 32 -4 55 
30 -4 54.5997 -21.4003 -4 56 -30.5997 -4 56 
34 -2 54.1421 32 -2 54.5997 30 -2 54.1421 
-21.8579 -2 56 -30.1421 -2 56 -22 -1.80292 56 
-23.8029 0 56 -28.1971 0 56 -30 -1.80292 56 
-24 0.142097 56 -26 0.59972 56 -28 0.142097 56 
-24 -8 56.1971 -26 -8 56.8267 -28 -8 56.1971 
-22 -6 56.1971 -23.8029 -6 58 -24 -6.19708 58 
-26 -6.82671 58 -28 -6.19708 58 -30 -6 56.1971 
-28.1971 -6 58 -22 -4 56.8267 -23.1733 -4 58 
-30 -4 56.8267 -28.8267 -4 58 -22 -2 56.1971 
-23.8029 -2 58 -30 -2 56.1971 -28.1971 -2 58 
-24 -1.80292 58 -24 0 56.1971 -26 -1.17329 58 
-26 0 56.8267 -28 -1.80292 58 -28 0 56.1971 
-24 -6 58.1421 -26 -6 58.5997 -28 -6 58.1421 
-24 -4 58.5997 -26 -4 59 -28 -4 58.5997 
-24 -2 58.1421 -26 -2 58.5997 -28 -2 58.1421 

TRIANGLE_STRIPS 98 790
57 2 0 1 4 21 24 25 27 56 28 57 60 109 61 110 71 118 78 124 87 132 131 173 182 174 181 209 208 203 202 195 166 155 154 107 108 58 59 30 31 29 35 2 9 8 13 15 18 19 46 47 51 52 93 86 131 87 
11 4 0 3 10 11 16 17 20 48 47 52 
12 6 3 5 11 12 17 37 41 42 49 78 87 
4 3 6 4 24 
10 6 5 7 12 32 37 38 42 71 78 
4 2 8 0 10 
4 9 14 13 18 
4 8 15 10 16 
4 15 19 16 20 
18 23 21 22 25 55 56 97 57 98 109 148 158 157 197 196 204 203 209 
11 27 24 26 6 28 33 60 34 61 38 71 
3 27 26 28 
8 29 23 30 54 58 95 107 155 
5 23 29 21 2 1 
4 7 32 33 34 
3 6 7 33 
6 31 36 35 39 9 14 
3 38 34 32 
14 36 40 39 43 18 44 46 50 51 92 93 142 131 182 
13 44 43 45 84 85 129 130 177 178 179 180 181 182 
3 18 14 39 
3 19 47 20 
5 17 48 49 86 87 
3 17 49 41 
9 44 45 50 91 92 141 142 180 182 
8 54 22 53 55 96 97 148 98 
3 23 22 54 
57 64 62 63 66 99 102 103 105 152 106 153 163 200 164 201 170 206 176 211 186 215 214 235 242 236 241 251 250 247 246 243 230 223 222 198 199 161 162 112 113 111 119 64 73 72 79 81 88 89 136 137 144 145 189 185 214 186 
11 66 62 65 74 75 82 83 90 138 137 145 
12 68 65 67 75 76 83 121 127 128 139 176 186 
4 65 68 66 102 
10 68 67 69 76 114 121 122 128 170 176 
8 31 59 36 70 40 77 84 129 
4 64 72 62 74 
4 73 80 79 88 
4 72 81 74 82 
3 43 40 84 
4 81 89 82 90 
7 45 85 91 140 141 178 180 
3 86 48 52 
7 95 53 94 96 147 148 157 
3 54 53 95 
18 101 99 100 103 151 152 193 153 194 200 221 226 225 245 244 248 247 251 
11 105 102 104 68 106 115 163 116 164 122 170 
3 105 104 106 
8 111 101 112 150 161 191 198 223 
5 101 111 99 64 63 
4 69 114 115 116 
3 68 69 115 
12 59 108 70 117 77 123 129 171 172 165 166 154 
6 113 120 119 125 73 80 
3 122 116 114 
14 120 126 125 133 88 134 136 143 144 188 189 218 214 242 
13 134 133 135 183 184 212 213 237 238 239 240 241 242 
3 88 80 125 
3 89 137 90 
5 83 138 139 185 186 
3 83 139 127 
4 85 130 140 178 
9 134 135 143 187 188 217 218 240 242 
7 95 94 146 147 156 157 196 
8 150 100 149 151 192 193 221 194 
3 101 100 150 
4 155 95 156 146 
7 158 159 160 167 168 173 174 
9 158 109 159 110 167 118 173 124 132 
4 154 165 117 123 
3 108 154 117 
8 113 162 120 169 126 175 183 212 
3 165 171 123 
7 129 172 177 207 179 208 181 
3 133 126 183 
7 135 184 187 216 217 238 240 
3 185 138 145 
7 191 149 190 192 220 221 225 
3 150 149 191 
5 155 156 195 196 203 
4 158 160 197 204 
4 160 168 204 209 
12 162 199 169 205 175 210 212 233 234 229 230 222 
4 172 202 207 208 
3 166 202 172 
3 168 174 209 
4 184 213 216 238 
7 191 190 219 220 224 225 244 
4 223 191 224 219 
7 226 227 228 231 232 235 236 
9 226 200 227 201 231 206 235 211 215 
4 222 229 205 210 
3 199 222 205 
3 229 233 210 
7 212 234 237 249 239 250 241 
5 223 224 243 244 247 
4 226 228 245 248 
4 228 232 248 251 
4 234 246 249 250 
3 230 246 234 
3 232 236 251 

POINT_DATA 252
SCALARS scalars unsigned_short
LOOKUP_TABLE default
1 1 1 1 1 1 1 1 1 
1 1 1 1 1 1 1 1 1 
1 1 1 1 1 1 1 1 1 
1 1 1 1 1 1 1 1 1 
1 1 1 1 1 1 1 1 1 
1 1 1 1 1 1 1 1 1 
1 1 1 1 1 1 1 1 1 
1 1 1 1 1 1 1 1 1 
1 1 1 1 1 1 1 1 1 
1 1 1 1 1 1 1 1 1 
1 1 1 1 1 1 1 1 1 
1 1 1 1 1 1 1 1 1 
1 1 1 1 1 1 1 1 1 
1 1 1 1 1 1 1 1 1 
1 1 1 1 1 1 1 1 1 
1 1 1 1 1 1 1 1 1 
1 1 1 1 1 1 1 1 1 
1 1 1 1 1 1 1 1 1 
1 1 1 1 1 1 1 1 1 
1 1 1 1 1 1 1 1 1 
1 1 1 1 1 1 1 1 1 
1 1 1 1 1 1 1 1 1 
1 1 1 1 1 1 1 1 1 
1 1 1 1 1 1 1 1 1 
1 1 1 1 1 1 1 1 1 
1 1 1 1 1 1 1 1 1 
1 1 1 1 1 1 1 1 1 
1 1 1 1 1 1 1 1 1 

NORMALS normals float
-0.42284 0.42284 0.801506 -0.420317 0.451654 0.786983 -0.451654 0.420317 0.786983 
-0 0.457859 0.889025 -0 0.593652 0.804722 0.42284 0.42284 0.801506 
0.420317 0.451654 0.786983 0.451654 0.420317 0.786983 -0.457859 -0 0.889025 
-0.593652 -0 0.804722 -0 -0 1 0.457859 -0 0.889025 
0.593652 -0 0.804722 -0.42284 -0.42284 0.801506 -0.451654 -0.420317 0.786983 
-0 -0.457859 0.889025 0.42284 -0.42284 0.801506 0.451654 -0.420317 0.786983 
-0.420317 -0.451654 0.786983 -0 -0.593652 0.804722 0.420317 -0.451654 0.786983 
-0.420317 0.786983 0.451654 -0.42284 0.801506 0.42284 -0.451654 0.786983 0.420317 
-0 0.804722 0.593652 -0 0.889025 0.457859 0.420317 0.786983 0.451654 
0.42284 0.801506 0.42284 0.451654 0.786983 0.420317 -0.786983 0.420317 0.451654 
-0.786983 0.451654 0.420317 -0.801506 0.42284 0.42284 0.786983 0.420317 0.451654 
0.786983 0.451654 0.420317 0.801506 0.42284 0.42284 -0.804722 -0 0.593652 
-0.889025 -0 0.457859 0.804722 -0 0.593652 0.889025 -0 0.457859 
-0.786983 -0.420317 0.451654 -0.801506 -0.42284 0.42284 0.786983 -0.420317 0.451654 
0.801506 -0.42284 0.42284 -0.786983 -0.451654 0.420317 -0.420317 -0.786983 0.451654 
-0.451654 -0.786983 0.420317 -0 -0.804722 0.593652 0.420317 -0.786983 0.451654 
0.451654 -0.786983 0.420317 0.786983 -0.451654 0.420317 -0.42284 -0.801506 0.42284 
-0 -0.889025 0.457859 0.42284 -0.801506 0.42284 -0.457859 0.889025 -0 
-0.593652 0.804722 -0 0 1 -0 0.457859 0.889025 -0 
0.593652 0.804722 -0 -0.804722 0.593652 -0 -0.889025 0.457859 -0 
0.804722 0.593652 -0 0.889025 0.457859 -0 -0.42284 0.42284 0.801506 
-0.420317 0.451654 0.786983 -0.451654 0.420317 0.786983 -0 0.457859 0.889025 
-0 0.593652 0.804722 0.42284 0.42284 0.801506 0.420317 0.451654 0.786983 
0.451654 0.420317 0.786983 -1 -0 -0 1 -0 -0 
-0.457859 -0 0.889025 -0.593652 -0 0.804722 -0 -0 1 
0.457859 -0 0.889025 0.593652 -0 0.804722 -0.889025 -0.457859 -0 
0.889025 -0.457859 -0 -0.42284 -0.42284 0.801506 -0.451654 -0.420317 0.786983 
-0 -0.457859 0.889025 0.42284 -0.42284 0.801506 0.451654 -0.420317 0.786983 
-0.804722 -0.593652 -0 -0.593652 -0.804722 -0 0.593652 -0.804722 -0 
0.804722 -0.593652 -0 -0.420317 -0.451654 0.786983 -0 -0.593652 0.804722 
0.420317 -0.451654 0.786983 -0.457859 -0.889025 -0 -0 -1 -0 
0.457859 -0.889025 -0 -0.42284 0.801506 -0.42284 -0.451654 0.786983 -0.420317 
0 0.889025 -0.457859 0.42284 0.801506 -0.42284 0.451654 0.786983 -0.420317 
-0.420317 0.786983 0.451654 -0.42284 0.801506 0.42284 -0.451654 0.786983 0.420317 
-0 0.804722 0.593652 -0 0.889025 0.457859 0.420317 0.786983 0.451654 
0.42284 0.801506 0.42284 0.451654 0.786983 0.420317 -0.786983 0.451654 -0.420317 
-0.801506 0.42284 -0.42284 0.786983 0.451654 -0.420317 0.801506 0.42284 -0.42284 
-0.786983 0.420317 0.451654 -0.786983 0.451654 0.420317 -0.801506 0.42284 0.42284 
0.786983 0.420317 0.451654 0.786983 0.451654 0.420317 0.801506 0.42284 0.42284 
-0.889025 -0 -0.457859 0.889025 -0 -0.457859 -0.804722 -0 0.593652 
-0.889025 -0 0.457859 0.804722 -0 0.593652 0.889025 -0 0.457859 
-0.801506 -0.42284 -0.42284 0.801506 -0.42284 -0.42284 -0.786983 -0.420317 0.451654 
-0.801506 -0.42284 0.42284 0.786983 -0.420317 0.451654 0.801506 -0.42284 0.42284 
-0.786983 -0.451654 -0.420317 -0.451654 -0.786983 -0.420317 0.451654 -0.786983 -0.420317 
0.786983 -0.451654 -0.420317 -0.786983 -0.451654 0.420317 -0.420317 -0.786983 0.451654 
-0.451654 -0.786983 0.420317 -0 -0.804722 0.593652 0.420317 -0.786983 0.451654 
0.451654 -0.786983 0.420317 0.786983 -0.451654 0.420317 -0.42284 -0.801506 -0.42284 
-0 -0.889025 -0.457859 0.42284 -0.801506 -0.42284 -0.42284 -0.801506 0.42284 
-0 -0.889025 0.457859 0.42284 -0.801506 0.42284 -0.420317 0.786983 -0.451654 
0 0.804722 -0.593652 0.420317 0.786983 -0.451654 -0.457859 0.889025 -0 
-0.593652 0.804722 -0 0 1 -0 0.457859 0.889025 -0 
0.593652 0.804722 -0 -0.786983 0.420317 -0.451654 -0.451654 0.420317 -0.786983 
-0.420317 0.451654 -0.786983 0 0.593652 -0.804722 0.420317 0.451654 -0.786983 
0.786983 0.420317 -0.451654 0.451654 0.420317 -0.786983 -0.804722 0.593652 -0 
-0.889025 0.457859 -0 0.804722 0.593652 -0 0.889025 0.457859 -0 
-0.804722 -0 -0.593652 -0.593652 -0 -0.804722 0.804722 -0 -0.593652 
0.593652 -0 -0.804722 -1 -0 -0 1 -0 -0 
-0.786983 -0.420317 -0.451654 -0.451654 -0.420317 -0.786983 0.786983 -0.420317 -0.451654 
0.451654 -0.420317 -0.786983 -0.889025 -0.457859 -0 0.889025 -0.457859 -0 
-0.420317 -0.451654 -0.786983 -0.420317 -0.786983 -0.451654 -0 -0.593652 -0.804722 
-0 -0.804722 -0.593652 0.420317 -0.451654 -0.786983 0.420317 -0.786983 -0.451654 
-0.804722 -0.593652 -0 -0.593652 -0.804722 -0 0.593652 -0.804722 -0 
0.804722 -0.593652 -0 -0.457859 -0.889025 -0 -0 -1 -0 
0.457859 -0.889025 -0 -0.42284 0.801506 -0.42284 -0.451654 0.786983 -0.420317 
0 0.889025 -0.457859 0.42284 0.801506 -0.42284 0.451654 0.786983 -0.420317 
-0.42284 0.42284 -0.801506 0 0.457859 -0.889025 0.42284 0.42284 -0.801506 
-0.786983 0.451654 -0.420317 -0.801506 0.42284 -0.42284 0.786983 0.451654 -0.420317 
0.801506 0.42284 -0.42284 -0.457859 -0 -0.889025 -0 -0 -1 
0.457859 -0 -0.889025 -0.889025 -0 -0.457859 0.889025 -0 -0.457859 
-0.42284 -0.42284 -0.801506 -0 -0.457859 -0.889025 0.42284 -0.42284 -0.801506 
-0.801506 -0.42284 -0.42284 0.801506 -0.42284 -0.42284 -0.786983 -0.451654 -0.420317 
-0.451654 -0.786983 -0.420317 0.451654 -0.786983 -0.420317 0.786983 -0.451654 -0.420317 
-0.42284 -0.801506 -0.42284 -0 -0.889025 -0.457859 0.42284 -0.801506 -0.42284 
-0.420317 0.786983 -0.451654 0 0.804722 -0.593652 0.420317 0.786983 -0.451654 
-0.786983 0.420317 -0.451654 -0.451654 0.420317 -0.786983 -0.420317 0.451654 -0.786983 
0 0.593652 -0.804722 0.420317 0.451654 -0.786983 0.786983 0.420317 -0.451654 
0.451654 0.420317 -0.786983 -0.804722 -0 -0.593652 -0.593652 -0 -0.804722 
0.804722 -0 -0.593652 0.593652 -0 -0.804722 -0.786983 -0.420317 -0.451654 
-0.451654 -0.420317 -0.786983 0.786983 -0.420317 -0.451654 0.451654 -0.420317 -0.786983 
-0.420317 -0.451654 -0.786983 -0.420317 -0.786983 -0.451654 -0 -0.593652 -0.804722 
-0 -0.804722 -0.593652 0.420317 -0.451654 -0.786983 0.420317 -0.786983 -0.451654 
-0.42284 0.42284 -0.801506 0 0.457859 -0.889025 0.42284 0.42284 -0.801506 
-0.457859 -0 -0.889025 -0 -0 -1 0.457859 -0 -0.889025 
-0.42284 -0.42284 -0.801506 -0 -0.457859 -0.889025 0.42284 -0.42284 -0.801506 

