# vtk DataFile Version 4.0
vtk output
ASCII
DATASET POLYDATA
POINTS 6644 float
17.7015 -5.176 -7.39913 17.7015 -5.06259 -7.33124 17.8547 -5.176 -7.33124 
17.3015 -5.176 -7.45118 17.3015 -4.976 -7.33124 16.9015 -5.176 -7.37225 
16.9015 -5.09633 -7.33124 16.8218 -5.176 -7.33124 18.1015 -5.576 -7.39913 
18.1015 -5.42281 -7.33124 18.2149 -5.576 -7.33124 17.7015 -5.576 -7.51405 
17.3015 -5.576 -7.51405 16.9015 -5.576 -7.39913 16.7815 -5.576 -7.33124 
-15.0985 -5.576 -7.37225 -15.0985 -5.51013 -7.33124 -15.0238 -5.576 -7.33124 
-15.4985 -5.576 -7.39913 -15.4985 -5.47934 -7.33124 -15.6985 -5.576 -7.33124 
18.1015 -5.976 -7.37225 18.1812 -5.976 -7.33124 17.7015 -5.976 -7.45118 
17.3015 -5.976 -7.39913 17.1361 -5.976 -7.33124 16.9015 -5.74134 -7.33124 
-15.0985 -5.976 -7.39913 -14.9971 -5.976 -7.33124 -15.4985 -5.976 -7.49573 
-15.8985 -5.69595 -7.33124 -15.8985 -5.976 -7.47241 -16.2985 -5.976 -7.39913 
-16.2985 -5.86259 -7.33124 -16.4985 -5.976 -7.33124 18.1015 -6.05568 -7.33124 
17.7015 -6.176 -7.33124 17.3015 -6.08942 -7.33124 -15.0985 -6.12919 -7.33124 
-15.3112 -6.376 -7.33124 -15.4985 -6.376 -7.42401 -15.8985 -6.376 -7.51405 
-16.2985 -6.376 -7.51405 -16.6985 -6.09595 -7.33124 -16.6985 -6.376 -7.47241 
-17.0985 -6.376 -7.39913 -17.0985 -6.26259 -7.33124 -17.2517 -6.376 -7.33124 
-15.4985 -6.59341 -7.33124 -15.6337 -6.776 -7.33124 -15.8985 -6.776 -7.47241 
-16.2985 -6.776 -7.53124 -16.6985 -6.776 -7.53124 -17.0985 -6.776 -7.51405 
-17.4985 -6.58867 -7.33124 -17.4985 -6.776 -7.42401 -17.6858 -6.776 -7.33124 
-15.8985 -7.176 -7.38794 -15.8211 -7.176 -7.33124 -16.2985 -7.176 -7.51405 
-16.6985 -7.176 -7.53124 -17.0985 -7.176 -7.53124 -17.4985 -7.176 -7.51405 
-17.8985 -7.02281 -7.33124 -17.8985 -7.176 -7.39913 -18.0119 -7.176 -7.33124 
-15.8985 -7.28988 -7.33124 -16.1665 -7.576 -7.33124 -16.2985 -7.576 -7.39913 
-16.6985 -7.576 -7.47241 -17.0985 -7.576 -7.51405 -17.4985 -7.576 -7.53124 
-17.8985 -7.576 -7.45118 -18.0985 -7.576 -7.33124 -16.2985 -7.67737 -7.33124 
-16.6985 -7.84082 -7.33124 -16.8811 -7.976 -7.33124 -17.0985 -7.976 -7.42401 
-17.4985 -7.976 -7.51405 -17.8985 -7.976 -7.47241 -18.1786 -7.976 -7.33124 
-17.0985 -8.16333 -7.33124 -17.3453 -8.376 -7.33124 -17.4985 -8.376 -7.39913 
-17.8985 -8.376 -7.42839 -18.2254 -8.376 -7.33124 -17.4985 -8.48942 -7.33124 
-17.8985 -8.55143 -7.33124 16.9015 -3.976 -6.98794 16.9015 -3.89855 -6.93124 
17.0351 -3.976 -6.93124 16.5015 -3.976 -7.05118 16.5015 -3.78554 -6.93124 
16.1015 -3.976 -7.05118 16.1015 -3.776 -6.93124 15.7015 -3.976 -6.99913 
15.7015 -3.85606 -6.93124 15.5361 -3.976 -6.93124 17.7015 -4.376 -6.98794 
17.7015 -4.30196 -6.93124 17.8007 -4.376 -6.93124 17.3015 -4.376 -7.07241 
17.3015 -4.13932 -6.93124 16.9015 -4.376 -7.11405 16.5015 -4.376 -7.13124 
16.1015 -4.376 -7.13124 15.7015 -4.376 -7.11405 15.3015 -4.21066 -6.93124 
15.3015 -4.376 -6.99913 15.1881 -4.376 -6.93124 18.1015 -4.776 -7.03083 
18.1015 -4.62927 -6.93124 18.2661 -4.776 -6.93124 17.7015 -4.776 -7.17303 
17.3015 -4.776 -7.21129 16.9015 -4.776 -7.19007 16.5015 -4.776 -7.14842 
16.1015 -4.776 -7.13124 15.7015 -4.776 -7.11405 15.3015 -4.776 -6.99913 
15.2001 -4.776 -6.93124 18.5015 -5.176 -7.04062 18.5015 -4.99903 -6.93124 
18.7015 -5.176 -6.93124 18.1015 -5.176 -7.22186 16.5015 -5.176 -7.19007 
16.1015 -5.176 -7.11405 15.7015 -5.176 -7.02401 15.5142 -5.176 -6.93124 
15.3015 -4.92919 -6.93124 -14.2985 -5.176 -6.99913 -14.2985 -5.04401 -6.93124 
-14.1851 -5.176 -6.93124 -14.6985 -5.176 -7.11288 -14.6985 -4.78975 -6.93124 
-15.0985 -5.176 -7.13124 -15.0985 -4.89122 -6.93124 -15.4985 -5.176 -7.10966 
-15.4985 -4.976 -6.93124 -15.8985 -5.176 -7.06807 -15.8985 -5.00133 -6.93124 
-16.2985 -5.176 -6.98794 -16.2985 -5.10196 -6.93124 -16.4321 -5.176 -6.93124 
18.9015 -5.576 -7.02401 18.9015 -5.38867 -6.93124 19.0888 -5.576 -6.93124 
18.5015 -5.576 -7.17303 16.5015 -5.576 -7.19007 16.1015 -5.576 -7.07241 
15.8367 -5.576 -6.93124 15.7015 -5.39341 -6.93124 -14.2985 -5.576 -6.99913 
-14.1971 -5.576 -6.93124 -14.6985 -5.576 -7.17303 -15.8985 -5.576 -7.26335 
-16.2985 -5.576 -7.17303 -16.6985 -5.33175 -6.93124 -16.6985 -5.576 -7.08945 
-17.0985 -5.576 -6.98794 -17.0985 -5.50196 -6.93124 -17.1977 -5.576 -6.93124 
19.3015 -5.976 -6.99913 19.3015 -5.82281 -6.93124 19.4029 -5.976 -6.93124 
18.9015 -5.976 -7.11405 18.5015 -5.976 -7.19007 16.9015 -5.976 -7.23847 
16.5015 -5.976 -7.13124 16.1015 -5.976 -6.98794 16.024 -5.976 -6.93124 
-14.2985 -5.75849 -6.93124 -14.4137 -5.976 -6.93124 -14.6985 -5.976 -7.13124 
-16.6985 -5.976 -7.26335 -17.0985 -5.976 -7.17303 -17.4985 -5.82927 -6.93124 
-17.4985 -5.976 -7.03083 -17.6452 -5.976 -6.93124 19.3015 -6.376 -7.07241 
19.5663 -6.376 -6.93124 18.9015 -6.376 -7.13124 18.5015 -6.376 -7.14842 
18.1015 -6.376 -7.19007 17.7015 -6.376 -7.21129 17.3015 -6.376 -7.17303 
16.9015 -6.376 -7.08945 16.5015 -6.376 -6.98794 16.4023 -6.376 -6.93124 
16.1015 -6.07522 -6.93124 -14.6985 -6.376 -7.00433 -14.6069 -6.376 -6.93124 
-15.0985 -6.376 -7.22186 -17.4985 -6.376 -7.22186 -17.8985 -6.22927 -6.93124 
-17.8985 -6.376 -7.03083 -18.0452 -6.376 -6.93124 19.7015 -6.776 -6.99913 
19.7015 -6.59352 -6.93124 19.8149 -6.776 -6.93124 19.3015 -6.776 -7.11405 
18.9015 -6.776 -7.13124 18.5015 -6.776 -7.13124 18.1015 -6.776 -7.13124 
17.7015 -6.776 -7.13124 17.3015 -6.776 -7.06467 17.0445 -6.776 -6.93124 
16.9015 -6.64779 -6.93124 16.5015 -6.45005 -6.93124 -14.6985 -6.49196 -6.93124 
-14.9518 -6.776 -6.93124 -15.0985 -6.776 -7.03083 -15.4985 -6.776 -7.24707 
-17.8985 -6.776 -7.22186 -18.2985 -6.62927 -6.93124 -18.2985 -6.776 -7.03083 
-18.4452 -6.776 -6.93124 19.7015 -7.176 -7.07241 19.9815 -7.176 -6.93124 
19.3015 -7.176 -7.13124 18.9015 -7.176 -7.13124 18.5015 -7.176 -7.13124 
18.1015 -7.176 -7.13124 17.7015 -7.176 -7.11405 17.3015 -7.176 -6.96069 
17.2682 -7.176 -6.93124 -15.0985 -6.92274 -6.93124 -15.327 -7.176 -6.93124 
-15.4985 -7.176 -7.07256 -18.2985 -7.176 -7.17303 -18.6985 -7.04249 -6.93124 
-18.6985 -7.176 -7.01406 -18.8492 -7.176 -6.93124 20.1015 -7.576 -6.99913 
20.1015 -7.376 -6.93124 20.2214 -7.576 -6.93124 19.7015 -7.576 -7.11405 
19.3015 -7.576 -7.13124 18.9015 -7.576 -7.13124 18.5015 -7.576 -7.13124 
18.1015 -7.576 -7.11405 17.7015 -7.576 -7.01406 17.5746 -7.576 -6.93124 
17.3015 -7.22733 -6.93124 -15.4985 -7.376 -6.93124 -15.8985 -7.576 -7.17517 
-15.6452 -7.576 -6.93124 -18.2985 -7.576 -7.21129 -18.6985 -7.576 -7.11405 
-19.0985 -7.44401 -6.93124 -19.0985 -7.576 -6.99913 -19.1999 -7.576 -6.93124 
20.1015 -7.976 -7.07241 20.3815 -7.976 -6.93124 19.7015 -7.976 -7.13124 
19.3015 -7.976 -7.13124 18.9015 -7.976 -7.11405 18.5015 -7.976 -7.07241 
18.1015 -7.976 -6.98794 18.0023 -7.976 -6.93124 17.7015 -7.70952 -6.93124 
-15.8985 -7.976 -6.94463 -15.8846 -7.976 -6.93124 -16.2985 -7.976 -7.13124 
-16.6985 -7.976 -7.24707 -18.2985 -7.976 -7.26335 -18.6985 -7.976 -7.14842 
-19.0985 -7.976 -7.07241 -19.3633 -7.976 -6.93124 20.1015 -8.376 -7.02839 
20.4283 -8.376 -6.93124 19.7015 -8.376 -7.05118 19.3015 -8.376 -7.05118 
18.9015 -8.376 -6.99913 18.719 -8.376 -6.93124 18.5015 -8.24082 -6.93124 
18.1015 -8.05345 -6.93124 -15.8985 -7.99253 -6.93124 -16.2985 -8.23459 -6.93124 
-16.5112 -8.376 -6.93124 -16.6985 -8.376 -7.03083 -17.0985 -8.376 -7.22186 
-18.2985 -8.376 -7.30702 -18.6985 -8.376 -7.17025 -19.0985 -8.376 -7.11405 
-19.4985 -8.15859 -6.93124 -19.4985 -8.376 -7.02401 -19.6858 -8.376 -6.93124 
20.1015 -8.55143 -6.93124 19.7015 -8.576 -6.93124 19.3015 -8.56646 -6.93124 
18.9015 -8.47737 -6.93124 -16.6985 -8.54057 -6.93124 -16.9215 -8.776 -6.93124 
-17.0985 -8.776 -7.04062 -17.4985 -8.776 -7.17303 -17.8985 -8.776 -7.21129 
-18.2985 -8.776 -7.19007 -18.6985 -8.776 -7.16675 -19.0985 -8.776 -7.17025 
-19.4985 -8.776 -7.13124 -19.8985 -8.62281 -6.93124 -19.8985 -8.776 -6.99913 
-19.9999 -8.776 -6.93124 -17.0985 -8.976 -6.93124 -17.3112 -9.176 -6.93124 
-17.4985 -9.176 -7.02401 -17.8985 -9.176 -7.11405 -18.2985 -9.176 -7.13124 
-18.6985 -9.176 -7.19007 -19.0985 -9.176 -7.27886 -19.4985 -9.176 -7.19007 
-19.8985 -9.176 -7.07241 -20.1633 -9.176 -6.93124 -17.4985 -9.39341 -6.93124 
-17.6337 -9.576 -6.93124 -17.8985 -9.576 -7.07241 -18.2985 -9.576 -7.13124 
-18.6985 -9.576 -7.19007 -19.0985 -9.576 -7.27886 -19.4985 -9.576 -7.19007 
-19.8985 -9.576 -7.11405 -20.2985 -9.39352 -6.93124 -20.2985 -9.576 -6.99913 
-20.3999 -9.576 -6.93124 -17.8985 -9.976 -6.95966 -17.8571 -9.976 -6.93124 
-18.2985 -9.976 -7.07241 -18.6985 -9.976 -7.13124 -19.0985 -9.976 -7.17025 
-19.4985 -9.976 -7.14842 -19.8985 -9.976 -7.13124 -20.2985 -9.976 -7.05118 
-20.489 -9.976 -6.93124 -17.8985 -10.0174 -6.93124 -18.2985 -10.2408 -6.93124 
-18.4811 -10.376 -6.93124 -18.6985 -10.376 -7.02401 -19.0985 -10.376 -7.11405 
-19.4985 -10.376 -7.13124 -19.8985 -10.376 -7.13124 -20.2985 -10.376 -7.05118 
-20.4985 -10.376 -6.93124 -18.6985 -10.5406 -6.93124 -18.9846 -10.776 -6.93124 
-19.0985 -10.776 -6.98794 -19.4985 -10.776 -7.07241 -19.8985 -10.776 -7.09573 
-20.2985 -10.776 -6.99913 -20.4185 -10.776 -6.93124 -19.0985 -10.8535 -6.93124 
-19.4985 -11.0408 -6.93124 -19.8721 -11.176 -6.93124 -19.8985 -11.176 -6.93749 
-19.9209 -11.176 -6.93124 -20.2985 -10.9413 -6.93124 -19.8985 -11.1871 -6.93124 
16.5015 -3.176 -6.54672 16.5015 -3.16053 -6.53124 16.5292 -3.176 -6.53124 
16.1015 -3.176 -6.61092 16.1015 -3.09633 -6.53124 15.7015 -3.176 -6.62156 
15.7015 -3.07862 -6.53124 15.3015 -3.176 -6.64251 15.3015 -3.03418 -6.53124 
14.9015 -3.176 -6.65118 14.9015 -3.01066 -6.53124 14.5015 -3.176 -6.59913 
14.5015 -3.07934 -6.53124 14.3483 -3.176 -6.53124 16.9015 -3.576 -6.67256 
16.9015 -3.41185 -6.53124 17.1272 -3.576 -6.53124 16.5015 -3.576 -6.79441 
16.1015 -3.576 -6.81129 15.7015 -3.576 -6.79007 15.3015 -3.576 -6.74842 
14.9015 -3.576 -6.73124 14.5015 -3.576 -6.69573 14.1161 -3.576 -6.53124 
17.7015 -3.976 -6.64531 17.7015 -3.86193 -6.53124 17.8559 -3.976 -6.53124 
17.3015 -3.976 -6.80654 17.3015 -3.69008 -6.53124 15.3015 -3.976 -6.83847 
14.9015 -3.976 -6.74842 14.5015 -3.976 -6.67241 14.2648 -3.976 -6.53124 
[...]
POINT_DATA 6644
SCALARS scalars unsigned_short
LOOKUP_TABLE default
1 1 1 1 1 1 1 1 1 
1 1 1 1 1 1 1 1 1 
1 1 1 1 1 1 1 1 1 
1 1 1 1 1 1 1 1 1 
1 1 1 1 1 1 1 1 1 
1 1 1 1 1 1 1 1 1 
1 1 1 1 1 1 1 1 1 
1 1 1 1 1 1 1 1 1 
1 1 1 1 1 1 1 1 1 
1 1 1 1 1 1 1 1 1 
1 1 1 1 1 1 1 1 1 
1 1 1 1 1 1 1 1 1 
1 1 1 1 1 1 1 1 1 
1 1 1 1 1 1 1 1 1 
1 1 1 1 1 1 1 1 1 
1 1 1 1 1 1 1 1 1 
1 1 1 1 1 1 1 1 1 
1 1 1 1 1 1 1 1 1 
1 1 1 1 1 1 1 1 1 
1 1 1 1 1 1 1 1 1 
1 1 1 1 1 1 1 1 1 
1 1 1 1 1 1 1 1 1 
1 1 1 1 1 1 1 1 1 
1 1 1 1 1 1 1 1 1 
1 1 1 1 1 1 1 1 1 
1 1 1 1 1 1 1 1 1 
1 1 1 1 1 1 1 1 1 
1 1 1 1 1 1 1 1 1 
1 1 1 1 1 1 1 1 1 
1 1 1 1 1 1 1 1 1 
1 1 1 1 1 1 1 1 1 
1 1 1 1 1 1 1 1 1 
1 1 1 1 1 1 1 1 1 
1 1 1 1 1 1 1 1 1 
1 1 1 1 1 1 1 1 1 
1 1 1 1 1 1 1 1 1 
1 1 1 1 1 1 1 1 1 
1 1 1 1 1 1 1 1 1 
1 1 1 1 1 1 1 1 1 
1 1 1 1 1 1 1 1 1 
1 1 1 1 1 1 1 1 1 
1 1 1 1 1 1 1 1 1 
1 1 1 1 1 1 1 1 1 
1 1 1 1 1 1 1 1 1 
1 1 1 1 1 1 1 1 1 
1 1 1 1 1 1 1 1 1 
1 1 1 1 1 1 1 1 1 
1 1 1 1 1 1 1 1 1 
1 1 1 1 1 1 1 1 1 
1 1 1 1 1 1 1 1 1 
1 1 1 1 1 1 1 1 1 
1 1 1 1 1 1 1 1 1 
1 1 1 1 1 1 1 1 1 
1 1 1 1 1 1 1 1 1 
1 1 1 1 1 1 1 1 1 
1 1 1 1 1 1 1 1 1 
1 1 1 1 1 1 1 1 1 
1 1 1 1 1 1 1 1 1 
1 1 1 1 1 1 1 1 1 
1 1 1 1 1 1 1 1 1 
1 1 1 1 1 1 1 1 1 
1 1 1 1 1 1 1 1 1 
1 1 1 1 1 1 1 1 1 
1 1 1 1 1 1 1 1 1 
1 1 1 1 1 1 1 1 1 
1 1 1 1 1 1 1 1 1 
1 1 1 1 1 1 1 1 1 
1 1 1 1 1 1 1 1 1 
1 1 1 1 1 1 1 1 1 
1 1 1 1 1 1 1 1 1 
1 1 1 1 1 1 1 1 1 
1 1 1 1 1 1 1 1 1 
1 1 1 1 1 1 1 1 1 
1 1 1 1 1 1 1 1 1 
1 1 1 1 1 1 1 1 1 
1 1 1 1 1 1 1 1 1 
1 1 1 1 1 1 1 1 1 
1 1 1 1 1 1 1 1 1 
1 1 1 1 1 1 1 1 1 
1 1 1 1 1 1 1 1 1 
1 1 1 1 1 1 1 1 1 
1 1 1 1 1 1 1 1 1 
1 1 1 1 1 1 1 1 1 
1 1 1 1 1 1 1 1 1 
1 1 1 1 1 1 1 1 1 
1 1 1 1 1 1 1 1 1 
1 1 1 1 1 1 1 1 1 
1 1 1 1 1 1 1 1 1 
1 1 1 1 1 1 1 1 1 
1 1 1 1 1 1 1 1 1 
1 1 1 1 1 1 1 1 1 
1 1 1 1 1 1 1 1 1 
1 1 1 1 1 1 1 1 1 
1 1 1 1 1 1 1 1 1 
1 1 1 1 1 1 1 1 1 
1 1 1 1 1 1 1 1 1 
1 1 1 1 1 1 1 1 1 
1 1 1 1 1 1 1 1 1 
1 1 1 1 1 1 1 1 1 
1 1 1 1 1 1 1 1 1 
1 1 1 1 1 1 1 1 1 
1 1 1 1 1 1 1 1 1 
1 1 1 1 1 1 1 1 1 
1 1 1 1 1 1 1 1 1 
1 1 1 1 1 1 1 1 1 
1 1 1 1 1 1 1 1 1 
1 1 1 1 1 1 1 1 1 
1 1 1 1 1 1 1 1 1 
1 1 1 1 1 1 1 1 1 
1 1 1 1 1 1 1 1 1 
1 1 1 1 1 1 1 1 1 
1 1 1 1 1 1 1 1 1 
1 1 1 1 1 1 1 1 1 
1 1 1 1 1 1 1 1 1 
1 1 1 1 1 1 1 1 1 
1 1 1 1 1 1 1 1 1 
1 1 1 1 1 1 1 1 1 
1 1 1 1 1 1 1 1 1 
1 1 1 1 1 1 1 1 1 
1 1 1 1 1 1 1 1 1 
1 1 1 1 1 1 1 1 1 
1 1 1 1 1 1 1 1 1 
1 1 1 1 1 1 1 1 1 
1 1 1 1 1 1 1 1 1 
1 1 1 1 1 1 1 1 1 
1 1 1 1 1 1 1 1 1 
1 1 1 1 1 1 1 1 1 
1 1 1 1 1 1 1 1 1 
1 1 1 1 1 1 1 1 1 
1 1 1 1 1 1 1 1 1 
1 1 1 1 1 1 1 1 1 
1 1 1 1 1 1 1 1 1 
1 1 1 1 1 1 1 1 1 
1 1 1 1 1 1 1 1 1 
1 1 1 1 1 1 1 1 1 
1 1 1 1 1 1 1 1 1 
1 1 1 1 1 1 1 1 1 
1 1 1 1 1 1 1 1 1 
1 1 1 1 1 1 1 1 1 
1 1 1 1 1 1 1 1 1 
1 1 1 1 1 1 1 1 1 
1 1 1 1 1 1 1 1 1 
1 1 1 1 1 1 1 1 1 
1 1 1 1 1 1 1 1 1 
1 1 1 1 1 1 1 1 1 
1 1 1 1 1 1 1 1 1 
1 1 1 1 1 1 1 1 1 
1 1 1 1 1 1 1 1 1 
1 1 1 1 1 1 1 1 1 
1 1 1 1 1 1 1 1 1 
1 1 1 1 1 1 1 1 1 
1 1 1 1 1 1 1 1 1 
1 1 1 1 1 1 1 1 1 
1 1 1 1 1 1 1 1 1 
1 1 1 1 1 1 1 1 1 
1 1 1 1 1 1 1 1 1 
1 1 1 1 1 1 1 1 1 
1 1 1 1 1 1 1 1 1 
1 1 1 1 1 1 1 1 1 
1 1 1 1 1 1 1 1 1 
1 1 1 1 1 1 1 1 1 
1 1 1 1 1 1 1 1 1 
1 1 1 1 1 1 1 1 1 
1 1 1 1 1 1 1 1 1 
1 1 1 1 1 1 1 1 1 
1 1 1 1 1 1 1 1 1 
1 1 1 1 1 1 1 1 1 
1 1 1 1 1 1 1 1 1 
1 1 1 1 1 1 1 1 1 
1 1 1 1 1 1 1 1 1 
1 1 1 1 1 1 1 1 1 
1 1 1 1 1 1 1 1 1 
1 1 1 1 1 1 1 1 1 
1 1 1 1 1 1 1 1 1 
1 1 1 1 1 1 1 1 1 
1 1 1 1 1 1 1 1 1 
1 1 1 1 1 1 1 1 1 
1 1 1 1 1 1 1 1 1 
1 1 1 1 1 1 1 1 1 
1 1 1 1 1 1 1 1 1 
1 1 1 1 1 1 1 1 1 
1 1 1 1 1 1 1 1 1 
1 1 1 1 1 1 1 1 1 
1 1 1 1 1 1 1 1 1 
1 1 1 1 1 1 1 1 1 
1 1 1 1 1 1 1 1 1 
1 1 1 1 1 1 1 1 1 
1 1 1 1 1 1 1 1 1 
1 1 1 1 1 1 1 1 1 
1 1 1 1 1 1 1 1 1 
1 1 1 1 1 1 1 1 1 
1 1 1 1 1 1 1 1 1 
1 1 1 1 1 1 1 1 1 
1 1 1 1 1 1 1 1 1 
1 1 1 1 1 1 1 1 1 
1 1 1 1 1 1 1 1 1 
1 1 1 1 1 1 1 1 1 
1 1 1 1 1 1 1 1 1 
1 1 1 1 1 1 1 1 1 
1 1 1 1 1 1 1 1 1 
1 1 1 1 1 1 1 1 1 
1 1 1 1 1 1 1 1 1 
1 1 1 1 1 1 1 1 1 
1 1 1 1 1 1 1 1 1 
1 1 1 1 1 1 1 1 1 
1 1 1 1 1 1 1 1 1 
1 1 1 1 1 1 1 1 1 
1 1 1 1 1 1 1 1 1 
1 1 1 1 1 1 1 1 1 
1 1 1 1 1 1 1 1 1 
1 1 1 1 1 1 1 1 1 
1 1 1 1 1 1 1 1 1 
1 1 1 1 1 1 1 1 1 
1 1 1 1 1 1 1 1 1 
1 1 1 1 1 1 1 1 1 
1 1 1 1 1 1 1 1 1 
1 1 1 1 1 1 1 1 1 
1 1 1 1 1 1 1 1 1 
1 1 1 1 1 1 1 1 1 
1 1 1 1 1 1 1 1 1 
1 1 1 1 1 1 1 1 1 
1 1 1 1 1 1 1 1 1 
1 1 1 1 1 1 1 1 1 
1 1 1 1 1 1 1 1 1 
1 1 1 1 1 1 1 1 1 
1 1 1 1 1 1 1 1 1 
1 1 1 1 1 1 1 1 1 
1 1 1 1 1 1 1 1 1 
1 1 1 1 1 1 1 1 1 
1 1 1 1 1 1 1 1 1 
1 1 1 1 1 1 1 1 1 
1 1 1 1 1 1 1 1 1 
1 1 1 1 1 1 1 1 1 
1 1 1 1 1 1 1 1 1 
1 1 1 1 1 1 1 1 1 
1 1 1 1 1 1 1 1 1 
1 1 1 1 1 1 1 1 1 
1 1 1 1 1 1 1 1 1 
1 1 1 1 1 1 1 1 1 
1 1 1 1 1 1 1 1 1 
1 1 1 1 1 1 1 1 1 
1 1 1 1 1 1 1 1 1 
1 1 1 1 1 1 1 1 1 
1 1 1 1 1 1 1 1 1 
1 1 1 1 1 1 1 1 1 
1 1 1 1 1 1 1 1 1 
1 1 1 1 1 1 1 1 1 
1 1 1 1 1 1 1 1 1 
1 1 1 1 1 1 1 1 1 
1 1 1 1 1 1 1 1 1 
1 1 1 1 1 1 1 1 1 
1 1 1 1 1 1 1 1 1 
1 1 1 1 1 1 1 1 1 
1 1 1 1 1 1 1 1 1 
1 1 1 1 1 1 1 1 1 
1 1 1 1 1 1 1 1 1 
1 1 1 1 1 1 1 1 1 
1 1 1 1 1 1 1 1 1 
1 1 1 1 1 1 1 1 1 
1 1 1 1 1 1 1 1 1 
1 1 1 1 1 1 1 1 1 
1 1 1 1 1 1 1 1 1 
1 1 1 1 1 1 1 1 1 
1 1 1 1 1 1 1 1 1 
1 1 1 1 1 1 1 1 1 
1 1 1 1 1 1 1 1 1 
1 1 1 1 1 1 1 1 1 
1 1 1 1 1 1 1 1 1 
1 1 1 1 1 1 1 1 1 
1 1 1 1 1 1 1 1 1 
1 1 1 1 1 1 1 1 1 
1 1 1 1 1 1 1 1 1 
1 1 1 1 1 1 1 1 1 
1 1 1 1 1 1 1 1 1 
1 1 1 1 1 1 1 1 1 
1 1 1 1 1 1 1 1 1 
1 1 1 1 1 1 1 1 1 
1 1 1 1 1 1 1 1 1 
1 1 1 1 1 1 1 1 1 
1 1 1 1 1 1 1 1 1 
1 1 1 1 1 1 1 1 1 
1 1 1 1 1 1 1 1 1 
1 1 1 1 1 1 1 1 1 
1 1 1 1 1 1 1 1 1 
1 1 1 1 1 1 1 1 1 
1 1 1 1 1 1 1 1 1 
1 1 1 1 1 1 1 1 1 
1 1 1 1 1 1 1 1 1 
1 1 1 1 1 1 1 1 1 
1 1 1 1 1 1 1 1 1 
1 1 1 1 1 1 1 1 1 
1 1 1 1 1 1 1 1 1 
1 1 1 1 1 1 1 1 1 
1 1 1 1 1 1 1 1 1 
1 1 1 1 1 1 1 1 1 
1 1 1 1 1 1 1 1 1 
1 1 1 1 1 1 1 1 1 
1 1 1 1 1 1 1 1 1 
1 1 1 1 1 1 1 1 1 
1 1 1 1 1 1 1 1 1 
1 1 1 1 1 1 1 1 1 
1 1 1 1 1 1 1 1 1 
1 1 1 1 1 1 1 1 1 
1 1 1 1 1 1 1 1 1 
1 1 1 1 1 1 1 1 1 
1 1 1 1 1 1 1 1 1 
1 1 1 1 1 1 1 1 1 
1 1 1 1 1 1 1 1 1 
1 1 1 1 1 1 1 1 1 
1 1 1 1 1 1 1 1 1 
1 1 1 1 1 1 1 1 1 
1 1 1 1 1 1 1 1 1 
1 1 1 1 1 1 1 1 1 
1 1 1 1 1 1 1 1 1 
1 1 1 1 1 1 1 1 1 
1 1 1 1 1 1 1 1 1 
1 1 1 1 1 1 1 1 1 
1 1 1 1 1 1 1 1 1 
1 1 1 1 1 1 1 1 1 
1 1 1 1 1 1 1 1 1 
1 1 1 1 1 1 1 1 1 
1 1 1 1 1 1 1 1 1 
1 1 1 1 1 1 1 1 1 
1 1 1 1 1 1 1 1 1 
1 1 1 1 1 1 1 1 1 
1 1 1 1 1 1 1 1 1 
1 1 1 1 1 1 1 1 1 
1 1 1 1 1 1 1 1 1 
1 1 1 1 1 1 1 1 1 
1 1 1 1 1 1 1 1 1 
1 1 1 1 1 1 1 1 1 
1 1 1 1 1 1 1 1 1 
1 1 1 1 1 1 1 1 1 
1 1 1 1 1 1 1 1 1 
1 1 1 1 1 1 1 1 1 
1 1 1 1 1 1 1 1 1 
1 1 1 1 1 1 1 1 1 
1 1 1 1 1 1 1 1 1 
1 1 1 1 1 1 1 1 1 
1 1 1 1 1 1 1 1 1 
1 1 1 1 1 1 1 1 1 
1 1 1 1 1 1 1 1 1 
1 1 1 1 1 1 1 1 1 
1 1 1 1 1 1 1 1 1 
1 1 1 1 1 1 1 1 1 
1 1 1 1 1 1 1 1 1 
1 1 1 1 1 1 1 1 1 
1 1 1 1 1 1 1 1 1 
1 1 1 1 1 1 1 1 1 
1 1 1 1 1 1 1 1 1 
1 1 1 1 1 1 1 1 1 
1 1 1 1 1 1 1 1 1 
1 1 1 1 1 1 1 1 1 
1 1 1 1 1 1 1 1 1 
1 1 1 1 1 1 1 1 1 
1 1 1 1 1 1 1 1 1 
1 1 1 1 1 1 1 1 1 
1 1 1 1 1 1 1 1 1 
1 1 1 1 1 1 1 1 1 
1 1 1 1 1 1 1 1 1 
1 1 1 1 1 1 1 1 1 
1 1 1 1 1 1 1 1 1 
1 1 1 1 1 1 1 1 1 
1 1 1 1 1 1 1 1 1 
1 1 1 1 1 1 1 1 1 
1 1 1 1 1 1 1 1 1 
1 1 1 1 1 1 1 1 1 
1 1 1 1 1 1 1 1 1 
1 1 1 1 1 1 1 1 1 
1 1 1 1 1 1 1 1 1 
1 1 1 1 1 1 1 1 1 
1 1 1 1 1 1 1 1 1 
1 1 1 1 1 1 1 1 1 
1 1 1 1 1 1 1 1 1 
1 1 1 1 1 1 1 1 1 
1 1 1 1 1 1 1 1 1 
1 1 1 1 1 1 1 1 1 
1 1 1 1 1 1 1 1 1 
1 1 1 1 1 1 1 1 1 
1 1 1 1 1 1 1 1 1 
1 1 1 1 1 1 1 1 1 
1 1 1 1 1 1 1 1 1 
1 1 1 1 1 1 1 1 1 
1 1 1 1 1 1 1 1 1 
1 1 1 1 1 1 1 1 1 
1 1 1 1 1 1 1 1 1 
1 1 1 1 1 1 1 1 1 
1 1 1 1 1 1 1 1 1 
1 1 1 1 1 1 1 1 1 
1 1 1 1 1 1 1 1 1 
1 1 1 1 1 1 1 1 1 
1 1 1 1 1 1 1 1 1 
1 1 1 1 1 1 1 1 1 
1 1 1 1 1 1 1 1 1 
1 1 1 1 1 1 1 1 1 
1 1 1 1 1 1 1 1 1 
1 1 1 1 1 1 1 1 1 
1 1 1 1 1 1 1 1 1 
1 1 1 1 1 1 1 1 1 
1 1 1 1 1 1 1 1 1 
1 1 1 1 1 1 1 1 1 
1 1 1 1 1 1 1 1 1 
1 1 1 1 1 1 1 1 1 
1 1 1 1 1 1 1 1 1 
1 1 1 1 1 1 1 1 1 
1 1 1 1 1 1 1 1 1 
1 1 1 1 1 1 1 1 1 
1 1 1 1 1 1 1 1 1 
1 1 1 1 1 1 1 1 1 
1 1 1 1 1 1 1 1 1 
1 1 1 1 1 1 1 1 1 
1 1 1 1 1 1 1 1 1 
1 1 1 1 1 1 1 1 1 
1 1 1 1 1 1 1 1 1 
1 1 1 1 1 1 1 1 1 
1 1 1 1 1 1 1 1 1 
1 1 1 1 1 1 1 1 1 
1 1 1 1 1 1 1 1 1 
1 1 1 1 1 1 1 1 1 
1 1 1 1 1 1 1 1 1 
1 1 1 1 1 1 1 1 1 
1 1 1 1 1 1 1 1 1 
1 1 1 1 1 1 1 1 1 
1 1 1 1 1 1 1 1 1 
1 1 1 1 1 1 1 1 1 
1 1 1 1 1 1 1 1 1 
1 1 1 1 1 1 1 1 1 
1 1 1 1 1 1 1 1 1 
1 1 1 1 1 1 1 1 1 
1 1 1 1 1 1 1 1 1 
1 1 1 1 1 1 1 1 1 
1 1 1 1 1 1 1 1 1 
1 1 1 1 1 1 1 1 1 
1 1 1 1 1 1 1 1 1 
1 1 1 1 1 1 1 1 1 
1 1 1 1 1 1 1 1 1 
1 1 1 1 1 1 1 1 1 
1 1 1 1 1 1 1 1 1 
1 1 1 1 1 1 1 1 1 
1 1 1 1 1 1 1 1 1 
1 1 1 1 1 1 1 1 1 
1 1 1 1 1 1 1 1 1 
1 1 1 1 1 1 1 1 1 
1 1 1 1 1 1 1 1 1 
1 1 1 1 1 1 1 1 1 
1 1 1 1 1 1 1 1 1 
1 1 1 1 1 1 1 1 1 
1 1 1 1 1 1 1 1 1 
1 1 1 1 1 1 1 1 1 
1 1 1 1 1 1 1 1 1 
1 1 1 1 1 1 1 1 1 
1 1 1 1 1 1 1 1 1 
1 1 1 1 1 1 1 1 1 
1 1 1 1 1 1 1 1 1 
1 1 1 1 1 1 1 1 1 
1 1 1 1 1 1 1 1 1 
1 1 1 1 1 1 1 1 1 
1 1 1 1 1 1 1 1 1 
1 1 1 1 1 1 1 1 1 
1 1 1 1 1 1 1 1 1 
1 1 1 1 1 1 1 1 1 
1 1 1 1 1 1 1 1 1 
1 1 1 1 1 1 1 1 1 
1 1 1 1 1 1 1 1 1 
1 1 1 1 1 1 1 1 1 
1 1 1 1 1 1 1 1 1 
1 1 1 1 1 1 1 1 1 
1 1 1 1 1 1 1 1 1 
1 1 1 1 1 1 1 1 1 
1 1 1 1 1 1 1 1 1 
1 1 1 1 1 1 1 1 1 
1 1 1 1 1 1 1 1 1 
1 1 1 1 1 1 1 1 1 
1 1 1 1 1 1 1 1 1 
1 1 1 1 1 1 1 1 1 
1 1 1 1 1 1 1 1 1 
1 1 1 1 1 1 1 1 1 
1 1 1 1 1 1 1 1 1 
1 1 1 1 1 1 1 1 1 
1 1 1 1 1 1 1 1 1 
1 1 1 1 1 1 1 1 1 
1 1 1 1 1 1 1 1 1 
1 1 1 1 1 1 1 1 1 
1 1 1 1 1 1 1 1 1 
1 1 1 1 1 1 1 1 1 
1 1 1 1 1 1 1 1 1 
1 1 1 1 1 1 1 1 1 
1 1 1 1 1 1 1 1 1 
1 1 1 1 1 1 1 1 1 
1 1 1 1 1 1 1 1 1 
1 1 1 1 1 1 1 1 1 
1 1 1 1 1 1 1 1 1 
1 1 1 1 1 1 1 1 1 
1 1 1 1 1 1 1 1 1 
1 1 1 1 1 1 1 1 1 
1 1 1 1 1 1 1 1 1 
1 1 1 1 1 1 1 1 1 
1 1 1 1 1 1 1 1 1 
1 1 1 1 1 1 1 1 1 
1 1 1 1 1 1 1 1 1 
1 1 1 1 1 1 1 1 1 
1 1 1 1 1 1 1 1 1 
1 1 1 1 1 1 1 1 1 
1 1 1 1 1 1 1 1 1 
1 1 1 1 1 1 1 1 1 
1 1 1 1 1 1 1 1 1 
1 1 1 1 1 1 1 1 1 
1 1 1 1 1 1 1 1 1 
1 1 1 1 1 1 1 1 1 
1 1 1 1 1 1 1 1 1 
1 1 1 1 1 1 1 1 1 
1 1 1 1 1 1 1 1 1 
1 1 1 1 1 1 1 1 1 
1 1 1 1 1 1 1 1 1 
1 1 1 1 1 1 1 1 1 
1 1 1 1 1 1 1 1 1 
1 1 1 1 1 1 1 1 1 
1 1 1 1 1 1 1 1 1 
1 1 1 1 1 1 1 1 1 
1 1 1 1 1 1 1 1 1 
1 1 1 1 1 1 1 1 1 
1 1 1 1 1 1 1 1 1 
1 1 1 1 1 1 1 1 1 
1 1 1 1 1 1 1 1 1 
1 1 1 1 1 1 1 1 1 
1 1 1 1 1 1 1 1 1 
1 1 1 1 1 1 1 1 1 
1 1 1 1 1 1 1 1 1 
1 1 1 1 1 1 1 1 1 
1 1 1 1 1 1 1 1 1 
1 1 1 1 1 1 1 1 1 
1 1 1 1 1 1 1 1 1 
1 1 1 1 1 1 1 1 1 
1 1 1 1 1 1 1 1 1 
1 1 1 1 1 1 1 1 1 
1 1 1 1 1 1 1 1 1 
1 1 1 1 1 1 1 1 1 
1 1 1 1 1 1 1 1 1 
1 1 1 1 1 1 1 1 1 
1 1 1 1 1 1 1 1 1 
1 1 1 1 1 1 1 1 1 
1 1 1 1 1 1 1 1 1 
1 1 1 1 1 1 1 1 1 
1 1 1 1 1 1 1 1 1 
1 1 1 1 1 1 1 1 1 
1 1 1 1 1 1 1 1 1 
1 1 1 1 1 1 1 1 1 
1 1 1 1 1 1 1 1 1 
1 1 1 1 1 1 1 1 1 
1 1 1 1 1 1 1 1 1 
1 1 1 1 1 1 1 1 1 
1 1 1 1 1 1 1 1 1 
1 1 1 1 1 1 1 1 1 
1 1 1 1 1 1 1 1 1 
1 1 1 1 1 1 1 1 1 
1 1 1 1 1 1 1 1 1 
1 1 1 1 1 1 1 1 1 
1 1 1 1 1 1 1 1 1 
1 1 1 1 1 1 1 1 1 
1 1 1 1 1 1 1 1 1 
1 1 1 1 1 1 1 1 1 
1 1 1 1 1 1 1 1 1 
1 1 1 1 1 1 1 1 1 
1 1 1 1 1 1 1 1 1 
1 1 1 1 1 1 1 1 1 
1 1 1 1 1 1 1 1 1 
1 1 1 1 1 1 1 1 1 
1 1 1 1 1 1 1 1 1 
1 1 1 1 1 1 1 1 1 
1 1 1 1 1 1 1 1 1 
1 1 1 1 1 1 1 1 1 
1 1 1 1 1 1 1 1 1 
1 1 1 1 1 1 1 1 1 
1 1 1 1 1 1 1 1 1 
1 1 1 1 1 1 1 1 1 
1 1 1 1 1 1 1 1 1 
1 1 1 1 1 1 1 1 1 
1 1 1 1 1 1 1 1 1 
1 1 1 1 1 1 1 1 1 
1 1 1 1 1 1 1 1 1 
1 1 1 1 1 1 1 1 1 
1 1 1 1 1 1 1 1 1 
1 1 1 1 1 1 1 1 1 
1 1 1 1 1 1 1 1 1 
1 1 1 1 1 1 1 1 1 
1 1 1 1 1 1 1 1 1 
1 1 1 1 1 1 1 1 1 
1 1 1 1 1 1 1 1 1 
1 1 1 1 1 1 1 1 1 
1 1 1 1 1 1 1 1 1 
1 1 1 1 1 1 1 1 1 
1 1 1 1 1 1 1 1 1 
1 1 1 1 1 1 1 1 1 
1 1 1 1 1 1 1 1 1 
1 1 1 1 1 1 1 1 1 
1 1 1 1 1 1 1 1 1 
1 1 1 1 1 1 1 1 1 
1 1 1 1 1 1 1 1 1 
1 1 1 1 1 1 1 1 1 
1 1 1 1 1 1 1 1 1 
1 1 1 1 1 1 1 1 1 
1 1 1 1 1 1 1 1 1 
1 1 1 1 1 1 1 1 1 
1 1 1 1 1 1 1 1 1 
1 1 1 1 1 1 1 1 1 
1 1 1 1 1 1 1 1 1 
1 1 1 1 1 1 1 1 1 
1 1 1 1 1 1 1 1 1 
1 1 1 1 1 1 1 1 1 
1 1 1 1 1 1 1 1 1 
1 1 1 1 1 1 1 1 1 
1 1 1 1 1 1 1 1 1 
1 1 1 1 1 1 1 1 1 
1 1 1 1 1 1 1 1 1 
1 1 1 1 1 1 1 1 1 
1 1 1 1 1 1 1 1 1 
1 1 1 1 1 1 1 1 1 
1 1 1 1 1 1 1 1 1 
1 1 1 1 1 1 1 1 1 
1 1 1 1 1 1 1 1 1 
1 1 1 1 1 1 1 1 1 
1 1 1 1 1 1 1 1 1 
1 1 1 1 1 1 1 1 1 
1 1 1 1 1 1 1 1 1 
1 1 1 1 1 1 1 1 1 
1 1 1 1 1 1 1 1 1 
1 1 1 1 1 1 1 1 1 
1 1 1 1 1 1 1 1 1 
1 1 1 1 1 1 1 1 1 
1 1 1 1 1 1 1 1 1 
1 1 1 1 1 1 1 1 1 
1 1 1 1 1 1 1 1 1 
1 1 1 1 1 1 1 1 1 
1 1 1 1 1 1 1 1 1 
1 1 1 1 1 1 1 1 1 
1 1 1 1 1 1 1 1 1 
1 1 1 1 1 1 1 1 1 
1 1 1 1 1 1 1 1 1 
1 1 1 1 1 1 1 1 1 
1 1 1 1 1 1 1 1 1 
1 1 1 1 1 1 1 1 1 
1 1 1 1 1 1 1 1 1 
1 1 1 1 1 1 1 1 1 
1 1 1 1 1 1 1 1 1 
1 1 1 1 1 1 1 1 1 
1 1 1 1 1 1 1 1 1 
1 1 1 1 1 1 1 1 1 
1 1 1 1 1 1 1 1 1 
1 1 1 1 1 1 1 1 1 
1 1 1 1 1 1 1 1 1 
1 1 1 1 1 1 1 1 1 
1 1 1 1 1 1 1 1 1 
1 1 1 1 1 1 1 1 1 
1 1 1 1 1 1 1 1 1 
1 1 1 1 1 1 1 1 1 
1 1 1 1 1 1 1 1 1 
1 1 1 1 1 1 1 1 1 
1 1 1 1 1 1 1 1 1 
1 1 1 1 1 1 1 1 1 
1 1 1 1 1 1 1 1 1 
1 1 1 1 1 1 1 1 1 
1 1 1 1 1 1 1 1 1 
1 1 1 1 1 1 1 1 1 
1 1 1 1 1 1 1 1 1 
1 1 1 1 1 1 1 1 1 
1 1 1 1 1 1 1 1 1 
1 1 1 1 1 1 1 1 1 
1 1 1 1 1 1 1 1 1 
1 1 1 1 1 1 1 1 1 
1 1 1 1 1 1 1 1 1 
1 1 1 1 1 1 1 1 1 
1 1 1 1 1 1 1 1 1 
1 1 1 1 1 1 1 1 1 
1 1 1 1 1 1 1 1 1 
1 1 1 1 1 1 1 1 1 
1 1 1 1 1 1 1 1 1 
1 1 1 1 1 1 1 1 1 
1 1 1 1 1 1 1 1 1 
1 1 1 1 1 1 1 1 1 
1 1 1 1 1 1 1 1 1 
1 1 1 1 1 1 1 1 1 
1 1 1 1 1 1 1 1 1 
1 1 1 1 1 1 1 1 1 
1 1 1 1 1 1 1 1 1 
1 1 1 1 1 1 1 1 1 
1 1 1 1 1 1 1 1 1 
1 1 1 1 1 1 1 1 1 
1 1 1 1 1 1 1 1 1 
1 1 1 1 1 1 1 1 1 
1 1 1 1 1 1 1 1 1 
1 1 1 1 1 1 1 1 1 
1 1 1 1 1 1 1 1 1 
1 1 1 1 1 1 1 1 1 
1 1 1 1 1 1 1 1 1 
1 1 1 1 1 1 1 1 1 
1 1 1 1 1 1 1 1 1 
1 1 1 1 1 1 1 1 1 
1 1 1 1 1 1 1 1 1 
1 1 1 1 1 1 1 1 1 
1 1 1 1 1 1 1 1 1 
1 1 1 1 1 1 1 1 1 
1 1 1 1 1 1 1 1 1 
1 1 1 1 1 1 1 1 1 
1 1 1 1 1 1 1 1 1 
1 1 1 1 1 1 1 1 1 
1 1 1 1 1 1 1 1 1 
1 1 1 1 1 1 1 1 1 
1 1 1 1 1 1 1 1 1 
1 1 1 1 1 1 1 1 1 
1 1 1 1 1 1 1 1 1 
1 1 1 1 1 1 1 1 1 
1 1 1 1 1 1 1 1 1 
1 1 1 1 1 1 1 1 1 
1 1 1 1 1 1 1 1 1 
1 1 1 1 1 1 1 1 1 
1 1 1 1 1 1 1 1 1 
1 1 1 1 1 1 1 1 1 
1 1 1 1 1 1 1 1 1 
1 1 1 1 1 1 1 1 1 
1 1 1 1 1 1 1 1 1 
1 1 1 1 1 1 1 1 1 
1 1 1 1 1 1 1 1 1 
1 1 1 1 1 1 1 1 1 
1 1 1 1 1 1 1 1 1 
1 1 1 1 1 1 1 1 1 
1 1 1 1 1 1 1 1 1 
1 1 1 1 1 1 1 1 1 
1 1 1 1 1 1 1 1 1 
1 1 1 1 1 1 1 1 1 
1 1 1 1 1 1 1 1 1 
1 1 1 1 1 1 1 1 1 
1 1 1 1 1 1 1 1 1 
1 1 1 1 1 1 1 1 1 
1 1 1 1 1 1 1 1 1 
1 1 1 1 1 1 1 1 1 
1 1 1 1 1 1 1 1 1 
1 1 1 1 1 1 1 1 1 
1 1 1 1 1 1 1 1 1 
1 1 
NORMALS normals float
0.266994 0.438167 -0.858326 0.256055 0.46526 -0.84733 0.332009 0.441818 -0.833407 
-0.031739 0.39113 -0.919788 -0.0093803 0.468949 -0.883175 -0.346984 0.272236 -0.897491 
-0.309495 0.299858 -0.902384 -0.361155 0.240249 -0.901026 0.448115 0.169222 -0.877814 
0.450696 0.272239 -0.850152 0.470582 0.173517 -0.865127 0.158719 0.0645766 -0.98521 
-0.158719 -0.0645766 -0.98521 -0.438088 -0.156868 -0.885139 -0.452114 -0.14256 -0.880494 
0.288556 0.32124 -0.901965 0.257831 0.370275 -0.892424 0.329883 0.282968 -0.900614 
-0.123186 0.459819 -0.879427 -0.120908 0.517234 -0.84726 -0.20241 0.489731 -0.848053 
0.346984 -0.272236 -0.897491 0.361433 -0.237212 -0.901719 0.031739 -0.39113 -0.919788 
-0.254531 -0.439697 -0.861325 -0.301714 -0.429486 -0.851182 -0.41642 -0.259227 -0.871433 
0.44588 -0.169433 -0.87891 0.495757 -0.174841 -0.850679 0.0996225 0.0312865 -0.994533 
-0.241179 0.459236 -0.854947 -0.135964 0.315576 -0.939109 -0.254531 0.439697 -0.861325 
-0.256298 0.465229 -0.847274 -0.269469 0.470235 -0.840396 0.309793 -0.29692 -0.903253 
0.00949017 -0.448923 -0.89352 -0.238258 -0.456621 -0.857164 0.465549 -0.269904 -0.842862 
0.422293 -0.364452 -0.829966 0.365812 -0.30242 -0.880184 0.12998 1.807e-08 -0.991517 
-0.0642479 0.187325 -0.980195 -0.250684 0.457558 -0.853111 -0.164634 0.341606 -0.925311 
-0.296219 0.434267 -0.850686 -0.297211 0.459556 -0.836943 -0.348074 0.448854 -0.823028 
0.455244 -0.347357 -0.819814 0.474908 -0.314843 -0.821789 0.350808 -0.174855 -0.919978 
0.0905643 0 -0.995891 -0.0284303 0.0905277 -0.995488 -0.156293 0.185406 -0.970153 
-0.395551 0.410905 -0.821399 -0.358302 0.358302 -0.862114 -0.410905 0.395551 -0.821399 
0.491404 -0.324602 -0.808181 0.524616 -0.341645 -0.77978 0.193714 -0.184158 -0.963619 
0.0284303 -0.0905277 -0.995488 -0.0285475 -0 -0.999592 -0.185406 0.156293 -0.970153 
-0.45195 0.330136 -0.828705 -0.438167 0.266994 -0.858326 -0.461835 0.256574 -0.849046 
0.51135 -0.365345 -0.777846 0.39207 -0.464116 -0.794278 0.318208 -0.453323 -0.832612 
0.163995 -0.351473 -0.921722 0.0939218 -0.158347 -0.982906 -0.0905643 -0 -0.995891 
-0.415649 0.0993378 -0.904084 -0.465732 0.117294 -0.877118 0.322391 -0.494709 -0.807049 
0.290215 -0.478819 -0.828557 0.344842 -0.455695 -0.820626 0.330796 -0.362176 -0.871437 
0.0642479 -0.187325 -0.980195 -0.318377 -0.0314008 -0.947444 -0.434617 0.0822315 -0.896854 
0.380696 -0.413704 -0.826994 0.311832 -0.45492 -0.834151 0.237014 -0.441717 -0.865281 
-0.106508 -0.339144 -0.934686 -0.323807 -0.162721 -0.932025 0.233855 -0.464581 -0.854094 
-0.0567631 -0.404117 -0.912944 0.266602 0.500732 -0.823523 0.28022 0.53584 -0.796462 
0.29837 0.547522 -0.781789 0.0798187 0.426184 -0.901109 0.103334 0.509817 -0.854054 
-0.0683194 0.416739 -0.906455 -0.046559 0.487768 -0.871731 -0.25602 0.428796 -0.866364 
-0.221278 0.449137 -0.865628 -0.299609 0.406134 -0.863302 0.338142 0.537849 -0.772256 
0.35271 0.562025 -0.748147 0.387601 0.552171 -0.738155 0.166336 0.454353 -0.875155 
0.282348 0.556309 -0.781537 0.0913738 0.277946 -0.956241 0.0282399 0.146401 -0.988822 
-0.028346 0.118605 -0.992537 -0.185406 0.156293 -0.970153 -0.418715 0.258426 -0.870571 
-0.446604 0.187545 -0.874855 -0.475929 0.149057 -0.86676 0.42447 0.493292 -0.759268 
0.462278 0.525838 -0.713998 0.44568 0.517476 -0.730471 0.226155 0.474951 -0.850456 
0.0224778 0.475811 -0.87926 -0.0987259 0.339253 -0.9355 -0.0946945 0.0946945 -0.990992 
-0.0570021 -0.0285011 -0.997967 -0.186176 -0.127707 -0.974181 -0.468717 -0.197939 -0.860886 
-0.514051 -0.19769 -0.834668 0.443043 0.422804 -0.790538 0.448001 0.485261 -0.750877 
0.445242 0.445242 -0.776865 0.412711 0.417057 -0.809773 -0.340132 0.0678964 -0.937923 
-0.242172 -0.0922905 -0.965834 -0.362176 -0.330796 -0.871437 -0.421996 -0.381796 -0.822284 
-0.481113 -0.28753 -0.828165 0.432309 0.230083 -0.871878 0.413278 0.340658 -0.844484 
0.461046 0.2029 -0.863868 0.179625 0.316716 -0.931357 0.0706294 0.555644 -0.828415 
0 0.57596 -0.817478 -0.149217 0.579381 -0.801282 -0.0791564 0.647497 -0.757946 
-0.0939172 0.661878 -0.743705 -0.143402 0.563 -0.813921 -0.112505 0.628857 -0.769339 
-0.273346 0.549748 -0.789341 -0.275613 0.577362 -0.768564 -0.300691 0.579627 -0.757375 
0.413739 0.349394 -0.840681 0.433503 0.408657 -0.803165 0.437327 0.390182 -0.810249 
0.454078 0.195631 -0.869219 -0.411647 -0.089781 -0.90691 -0.416288 -0.169774 -0.893242 
-0.487374 -0.312395 -0.815399 -0.452843 -0.360428 -0.815491 0.517608 -0.161961 -0.840149 
0.54118 -0.169294 -0.823689 0.459407 0.0345023 -0.887556 -0.264261 0.489508 -0.830992 
-0.228417 0.474694 -0.849995 -0.303452 0.579854 -0.756099 -0.234959 0.492717 -0.837869 
-0.353437 0.534628 -0.76763 -0.364664 0.562099 -0.742338 -0.399808 0.549039 -0.733968 
0.457272 0.292451 -0.839866 0.469206 0.343978 -0.813342 0.499061 0.296813 -0.81415 
0.267103 0.153272 -0.951401 0.340603 -0.0430011 -0.939223 -0.335363 -0.380608 -0.861782 
-0.325054 -0.266138 -0.907475 -0.500196 -0.347315 -0.793206 -0.527909 -0.365069 -0.766835 
0.542266 -0.243598 -0.804119 0.561293 -0.302419 -0.770385 0.581105 -0.202341 -0.788274 
-0.266666 0.475098 -0.838553 -0.283376 0.467597 -0.837288 -0.482247 0.519493 -0.705383 
-0.444848 0.487933 -0.75102 -0.495174 0.515199 -0.699552 0.351473 0.163995 -0.921722 
0.481796 0.269818 -0.833709 0.118605 0.028346 -0.992537 0.0946945 -0.0946945 -0.990992 
0.0995389 -0.316952 -0.943204 -0.023221 -0.417603 -0.908333 -0.174966 -0.417329 -0.891753 
-0.240836 -0.452122 -0.858827 -0.360541 -0.506782 -0.78306 -0.407469 -0.523849 -0.748032 
-0.5181 -0.400519 -0.755749 0.553919 -0.386067 -0.737649 0.570015 -0.392645 -0.721742 
0.456744 -0.407321 -0.79087 -0.41111 0.440254 -0.798226 -0.510065 0.510065 -0.692581 
-0.478415 0.478415 -0.736369 -0.510065 0.510065 -0.692581 0.438167 0.266994 -0.858326 
0.48367 0.291941 -0.825127 0.459287 0.275877 -0.844362 0.186892 0.0934459 -0.977926 