# vtk DataFile Version 4.0
vtk output
ASCII
DATASET POLYDATA
POINTS 252 float
32 -54 43.8579 32 -54.1971 44 32.1971 -54 44 
30 -54 43.4003 30 -54.8267 44 28 -54 43.8579 
28 -54.1971 44 27.8029 -54 44 32 -52 43.4003 
32.8267 -52 44 30 -52 43 28 -52 43.4003 
27.1733 -52 44 32 -50 43.8579 32.1971 -50 44 
30 -50 43.4003 28 -50 43.8579 27.8029 -50 44 
32 -49.8029 44 30 -49.1733 44 28 -49.8029 44 
32 -56 45.8029 32 -56.1421 46 32.1971 -56 46 
30 -56 45.1733 30 -56.5997 46 28 -56 45.8029 
28 -56.1421 46 27.8029 -56 46 34 -54 45.8029 
34 -54.1971 46 34.1421 -54 46 26 -54 45.8029 
26 -54.1971 46 25.8579 -54 46 -26 -54 45.8579 
-26 -54.1971 46 -25.8029 -54 46 -28 -54 45.4003 
-28 -54.8267 46 -30 -54 45.8579 -30 -54.1971 46 
-30.1971 -54 46 34 -52 45.1733 34.5997 -52 46 
26 -52 45.1733 25.4003 -52 46 -26 -52 45.4003 
-25.1733 -52 46 -28 -52 45 -30 -52 45.4003 
-30.8267 -52 46 34 -50 45.8029 34.1421 -50 46 
26 -50 45.8029 25.8579 -50 46 -26 -50 45.8579 
-25.8029 -50 46 -28 -50 45.4003 -30 -50 45.8579 
-30.1971 -50 46 34 -49.8029 46 32 -48 45.8029 
32.1971 -48 46 30 -48 45.1733 28 -48 45.8029 
27.8029 -48 46 26 -49.8029 46 -26 -49.8029 46 
-28 -49.1733 46 -30 -49.8029 46 32 -47.8579 46 
30 -47.4003 46 28 -47.8579 46 32 -56.5997 48 
32.8267 -56 48 30 -57 48 28 -56.5997 48 
27.1733 -56 48 -26 -56 47.8029 -26 -56.1421 48 
-25.8029 -56 48 -28 -56 47.1733 -28 -56.5997 48 
-30 -56 47.8029 -30 -56.1421 48 -30.1971 -56 48 
34 -54.8267 48 34.5997 -54 48 26 -54.8267 48 
25.4003 -54 48 -24 -54 47.8029 -24 -54.1971 48 
-23.8579 -54 48 -32 -54 47.8029 -32 -54.1971 48 
-32.1421 -54 48 35 -52 48 25 -52 48 
-24 -52 47.1733 -23.4003 -52 48 -32 -52 47.1733 
-32.5997 -52 48 34.5997 -50 48 25.4003 -50 48 
-24 -50 47.8029 -23.8579 -50 48 -32 -50 47.8029 
-32.1421 -50 48 34 -49.1733 48 32.8267 -48 48 
27.1733 -48 48 26 -49.1733 48 -24 -49.8029 48 
-26 -48 47.8029 -25.8029 -48 48 -28 -48 47.1733 
-30 -48 47.8029 -30.1971 -48 48 -32 -49.8029 48 
32 -47.4003 48 30 -47 48 28 -47.4003 48 
-26 -47.8579 48 -28 -47.4003 48 -30 -47.8579 48 
32 -56.1421 50 32.1971 -56 50 30 -56.5997 50 
28 -56.1421 50 27.8029 -56 50 -26 -56.5997 50 
-25.1733 -56 50 -28 -57 50 -30 -56.5997 50 
-30.8267 -56 50 34 -54.1971 50 34.1421 -54 50 
26 -54.1971 50 25.8579 -54 50 -24 -54.8267 50 
-23.4003 -54 50 -32 -54.8267 50 -32.5997 -54 50 
34.5997 -52 50 25.4003 -52 50 -23 -52 50 
-33 -52 50 34.1421 -50 50 25.8579 -50 50 
-23.4003 -50 50 -32.5997 -50 50 34 -49.8029 50 
32.1971 -48 50 27.8029 -48 50 26 -49.8029 50 
-24 -49.1733 50 -25.1733 -48 50 -30.8267 -48 50 
-32 -49.1733 50 32 -47.8579 50 30 -47.4003 50 
28 -47.8579 50 -26 -47.4003 50 -28 -47 50 
-30 -47.4003 50 32 -56 50.1971 30 -56 50.8267 
28 -56 50.1971 -26 -56.1421 52 -25.8029 -56 52 
-28 -56.5997 52 -30 -56.1421 52 -30.1971 -56 52 
34 -54 50.1971 32.1971 -54 52 32 -54.1971 52 
30 -54.8267 52 28 -54.1971 52 26 -54 50.1971 
27.8029 -54 52 -24 -54.1971 52 -23.8579 -54 52 
-32 -54.1971 52 -32.1421 -54 52 34 -52 50.8267 
32.8267 -52 52 26 -52 50.8267 27.1733 -52 52 
-23.4003 -52 52 -32.5997 -52 52 34 -50 50.1971 
32.1971 -50 52 26 -50 50.1971 27.8029 -50 52 
-23.8579 -50 52 -32.1421 -50 52 32 -49.8029 52 
32 -48 50.1971 30 -49.1733 52 30 -48 50.8267 
28 -49.8029 52 28 -48 50.1971 -24 -49.8029 52 
-25.8029 -48 52 -30.1971 -48 52 -32 -49.8029 52 
-26 -47.8579 52 -28 -47.4003 52 -30 -47.8579 52 
-26 -56 52.1971 -28 -56 52.8267 -30 -56 52.1971 
32 -54 52.1421 30 -54 52.5997 28 -54 52.1421 
-24 -54 52.1971 -25.8029 -54 54 -26 -54.1971 54 
-28 -54.8267 54 -30 -54.1971 54 -32 -54 52.1971 
-30.1971 -54 54 32 -52 52.5997 30 -52 53 
28 -52 52.5997 -24 -52 52.8267 -25.1733 -52 54 
-32 -52 52.8267 -30.8267 -52 54 32 -50 52.1421 
30 -50 52.5997 28 -50 52.1421 -24 -50 52.1971 
-25.8029 -50 54 -32 -50 52.1971 -30.1971 -50 54 
-26 -49.8029 54 -26 -48 52.1971 -28 -49.1733 54 
-28 -48 52.8267 -30 -49.8029 54 -30 -48 52.1971 
-26 -54 54.1421 -28 -54 54.5997 -30 -54 54.1421 
-26 -52 54.5997 -28 -52 55 -30 -52 54.5997 
-26 -50 54.1421 -28 -50 54.5997 -30 -50 54.1421 

TRIANGLE_STRIPS 98 790
57 2 0 1 4 21 24 25 27 77 28 78 89 138 90 139 98 145 104 149 112 155 154 193 202 194 201 232 231 224 223 213 186 175 174 136 137 87 88 30 31 29 43 2 9 8 13 15 18 19 64 65 72 73 122 111 154 112 
11 4 0 3 10 11 16 17 20 66 65 73 
12 6 3 5 11 12 17 45 54 55 67 104 112 
4 3 6 4 24 
10 6 5 7 12 32 45 46 55 98 104 
4 2 8 0 10 
4 9 14 13 18 
4 8 15 10 16 
4 15 19 16 20 
18 23 21 22 25 76 77 129 78 130 138 168 178 177 215 214 225 224 232 
11 27 24 26 6 28 33 89 34 90 46 98 
3 27 26 28 
8 29 23 30 75 87 127 136 175 
5 23 29 21 2 1 
4 7 32 33 34 
3 6 7 33 
57 37 35 36 39 79 82 83 85 134 86 135 142 183 143 184 147 190 151 196 159 206 205 235 242 236 241 251 250 247 246 243 227 217 216 181 182 140 141 92 93 91 99 37 48 47 56 58 68 69 116 117 124 125 165 158 205 159 
11 39 35 38 49 50 59 60 70 118 117 125 
12 41 38 40 50 51 60 101 107 108 119 151 159 
4 38 41 39 82 
10 41 40 42 51 94 101 102 108 147 151 
6 31 44 43 52 9 14 
3 46 34 32 
4 37 47 35 49 
14 44 53 52 61 18 62 64 71 72 121 122 162 154 202 
4 48 57 56 68 
4 47 58 49 59 
13 62 61 63 109 110 152 153 197 198 199 200 201 202 
3 18 14 52 
3 19 65 20 
5 17 66 67 111 112 
3 17 67 54 
4 58 69 59 70 
9 62 63 71 120 121 161 162 200 202 
8 75 22 74 76 128 129 168 130 
3 23 22 75 
18 81 79 80 83 133 134 172 135 173 183 212 220 219 245 244 248 247 251 
11 85 82 84 41 86 95 142 96 143 102 147 
3 85 84 86 
8 91 81 92 132 140 170 181 217 
5 81 91 79 37 36 
4 42 94 95 96 
3 41 42 95 
8 31 88 44 97 53 103 109 152 
6 93 100 99 105 48 57 
3 102 96 94 
14 100 106 105 113 68 114 116 123 124 164 165 209 205 242 
3 61 53 109 
13 114 113 115 156 157 203 204 237 238 239 240 241 242 
3 68 57 105 
3 69 117 70 
5 60 118 119 158 159 
3 60 119 107 
7 63 110 120 160 161 198 200 
3 111 66 73 
9 114 115 123 163 164 208 209 240 242 
7 127 74 126 128 167 168 177 
3 75 74 127 
8 132 80 131 133 171 172 212 173 
3 81 80 132 
12 88 137 97 144 103 148 152 191 192 185 186 174 
8 93 141 100 146 106 150 156 203 
3 113 106 156 
4 110 153 160 198 
7 115 157 163 207 208 238 240 
3 158 118 125 
7 127 126 166 167 176 177 214 
7 170 131 169 171 211 212 219 
3 132 131 170 
4 175 127 176 166 
7 178 179 180 187 188 193 194 
9 178 138 179 139 187 145 193 149 155 
4 174 185 144 148 
3 137 174 144 
12 141 182 146 189 150 195 203 233 234 226 227 216 
3 185 191 148 
7 152 192 197 230 199 231 201 
4 157 204 207 238 
7 170 169 210 211 218 219 244 
5 175 176 213 214 224 
4 178 180 215 225 
4 217 170 218 210 
7 220 221 222 228 229 235 236 
9 220 183 221 184 228 190 235 196 206 
4 180 188 225 232 
4 216 226 189 195 
3 182 216 189 
4 192 223 230 231 
3 186 223 192 
3 188 194 232 
3 226 233 195 
7 203 234 237 249 239 250 241 
5 217 218 243 244 247 
4 220 222 245 248 
4 222 229 248 251 
4 234 246 249 250 
3 227 246 234 
3 229 236 251 

POINT_DATA 252
SCALARS scalars unsigned_short
LOOKUP_TABLE default
1 1 1 1 1 1 1 1 1 
1 1 1 1 1 1 1 1 1 
1 1 1 1 1 1 1 1 1 
1 1 1 1 1 1 1 1 1 
1 1 1 1 1 1 1 1 1 
1 1 1 1 1 1 1 1 1 
1 1 1 1 1 1 1 1 1 
1 1 1 1 1 1 1 1 1 
1 1 1 1 1 1 1 1 1 
1 1 1 1 1 1 1 1 1 
1 1 1 1 1 1 1 1 1 
1 1 1 1 1 1 1 1 1 
1 1 1 1 1 1 1 1 1 
1 1 1 1 1 1 1 1 1 
1 1 1 1 1 1 1 1 1 
1 1 1 1 1 1 1 1 1 
1 1 1 1 1 1 1 1 1 
1 1 1 1 1 1 1 1 1 
1 1 1 1 1 1 1 1 1 
1 1 1 1 1 1 1 1 1 
1 1 1 1 1 1 1 1 1 
1 1 1 1 1 1 1 1 1 
1 1 1 1 1 1 1 1 1 
1 1 1 1 1 1 1 1 1 
1 1 1 1 1 1 1 1 1 
1 1 1 1 1 1 1 1 1 
1 1 1 1 1 1 1 1 1 
1 1 1 1 1 1 1 1 1 

NORMALS normals float
-0.42284 0.42284 0.801506 -0.420317 0.451654 0.786983 -0.451654 0.420317 0.786983 
-0 0.457859 0.889025 -0 0.593652 0.804722 0.42284 0.42284 0.801506 
0.420317 0.451654 0.786983 0.451654 0.420317 0.786983 -0.457859 -0 0.889025 
-0.593652 -0 0.804722 -0 -0 1 0.457859 -0 0.889025 
0.593652 -0 0.804722 -0.42284 -0.42284 0.801506 -0.451654 -0.420317 0.786983 
-0 -0.457859 0.889025 0.42284 -0.42284 0.801506 0.451654 -0.420317 0.786983 
-0.420317 -0.451654 0.786983 -0 -0.593652 0.804722 0.420317 -0.451654 0.786983 
-0.420317 0.786983 0.451654 -0.42284 0.801506 0.42284 -0.451654 0.786983 0.420317 
-0 0.804722 0.593652 -0 0.889025 0.457859 0.420317 0.786983 0.451654 
0.42284 0.801506 0.42284 0.451654 0.786983 0.420317 -0.786983 0.420317 0.451654 
-0.786983 0.451654 0.420317 -0.801506 0.42284 0.42284 0.786983 0.420317 0.451654 
0.786983 0.451654 0.420317 0.801506 0.42284 0.42284 -0.42284 0.42284 0.801506 
-0.420317 0.451654 0.786983 -0.451654 0.420317 0.786983 -0 0.457859 0.889025 
-0 0.593652 0.804722 0.42284 0.42284 0.801506 0.420317 0.451654 0.786983 
0.451654 0.420317 0.786983 -0.804722 -0 0.593652 -0.889025 -0 0.457859 
0.804722 -0 0.593652 0.889025 -0 0.457859 -0.457859 -0 0.889025 
-0.593652 -0 0.804722 -0 -0 1 0.457859 -0 0.889025 
0.593652 -0 0.804722 -0.786983 -0.420317 0.451654 -0.801506 -0.42284 0.42284 
0.786983 -0.420317 0.451654 0.801506 -0.42284 0.42284 -0.42284 -0.42284 0.801506 
-0.451654 -0.420317 0.786983 -0 -0.457859 0.889025 0.42284 -0.42284 0.801506 
0.451654 -0.420317 0.786983 -0.786983 -0.451654 0.420317 -0.420317 -0.786983 0.451654 
-0.451654 -0.786983 0.420317 -0 -0.804722 0.593652 0.420317 -0.786983 0.451654 
0.451654 -0.786983 0.420317 0.786983 -0.451654 0.420317 -0.420317 -0.451654 0.786983 
-0 -0.593652 0.804722 0.420317 -0.451654 0.786983 -0.42284 -0.801506 0.42284 
-0 -0.889025 0.457859 0.42284 -0.801506 0.42284 -0.457859 0.889025 -0 
-0.593652 0.804722 -0 0 1 -0 0.457859 0.889025 -0 
0.593652 0.804722 -0 -0.420317 0.786983 0.451654 -0.42284 0.801506 0.42284 
-0.451654 0.786983 0.420317 -0 0.804722 0.593652 -0 0.889025 0.457859 
0.420317 0.786983 0.451654 0.42284 0.801506 0.42284 0.451654 0.786983 0.420317 
-0.804722 0.593652 -0 -0.889025 0.457859 -0 0.804722 0.593652 -0 
0.889025 0.457859 -0 -0.786983 0.420317 0.451654 -0.786983 0.451654 0.420317 
-0.801506 0.42284 0.42284 0.786983 0.420317 0.451654 0.786983 0.451654 0.420317 
0.801506 0.42284 0.42284 -1 -0 -0 1 -0 -0 
-0.804722 -0 0.593652 -0.889025 -0 0.457859 0.804722 -0 0.593652 
0.889025 -0 0.457859 -0.889025 -0.457859 -0 0.889025 -0.457859 -0 
-0.786983 -0.420317 0.451654 -0.801506 -0.42284 0.42284 0.786983 -0.420317 0.451654 
0.801506 -0.42284 0.42284 -0.804722 -0.593652 -0 -0.593652 -0.804722 -0 
0.593652 -0.804722 -0 0.804722 -0.593652 -0 -0.786983 -0.451654 0.420317 
-0.420317 -0.786983 0.451654 -0.451654 -0.786983 0.420317 -0 -0.804722 0.593652 
0.420317 -0.786983 0.451654 0.451654 -0.786983 0.420317 0.786983 -0.451654 0.420317 
-0.457859 -0.889025 -0 -0 -1 -0 0.457859 -0.889025 -0 
-0.42284 -0.801506 0.42284 -0 -0.889025 0.457859 0.42284 -0.801506 0.42284 
-0.42284 0.801506 -0.42284 -0.451654 0.786983 -0.420317 0 0.889025 -0.457859 
0.42284 0.801506 -0.42284 0.451654 0.786983 -0.420317 -0.457859 0.889025 -0 
-0.593652 0.804722 -0 0 1 -0 0.457859 0.889025 -0 
0.593652 0.804722 -0 -0.786983 0.451654 -0.420317 -0.801506 0.42284 -0.42284 
0.786983 0.451654 -0.420317 0.801506 0.42284 -0.42284 -0.804722 0.593652 -0 
-0.889025 0.457859 -0 0.804722 0.593652 -0 0.889025 0.457859 -0 
-0.889025 -0 -0.457859 0.889025 -0 -0.457859 -1 -0 -0 
1 -0 -0 -0.801506 -0.42284 -0.42284 0.801506 -0.42284 -0.42284 
-0.889025 -0.457859 -0 0.889025 -0.457859 -0 -0.786983 -0.451654 -0.420317 
-0.451654 -0.786983 -0.420317 0.451654 -0.786983 -0.420317 0.786983 -0.451654 -0.420317 
-0.804722 -0.593652 -0 -0.593652 -0.804722 -0 0.593652 -0.804722 -0 
0.804722 -0.593652 -0 -0.42284 -0.801506 -0.42284 -0 -0.889025 -0.457859 
0.42284 -0.801506 -0.42284 -0.457859 -0.889025 -0 -0 -1 -0 
0.457859 -0.889025 -0 -0.420317 0.786983 -0.451654 0 0.804722 -0.593652 
0.420317 0.786983 -0.451654 -0.42284 0.801506 -0.42284 -0.451654 0.786983 -0.420317 
0 0.889025 -0.457859 0.42284 0.801506 -0.42284 0.451654 0.786983 -0.420317 
-0.786983 0.420317 -0.451654 -0.451654 0.420317 -0.786983 -0.420317 0.451654 -0.786983 
0 0.593652 -0.804722 0.420317 0.451654 -0.786983 0.786983 0.420317 -0.451654 
0.451654 0.420317 -0.786983 -0.786983 0.451654 -0.420317 -0.801506 0.42284 -0.42284 
0.786983 0.451654 -0.420317 0.801506 0.42284 -0.42284 -0.804722 -0 -0.593652 
-0.593652 -0 -0.804722 0.804722 -0 -0.593652 0.593652 -0 -0.804722 
-0.889025 -0 -0.457859 0.889025 -0 -0.457859 -0.786983 -0.420317 -0.451654 
-0.451654 -0.420317 -0.786983 0.786983 -0.420317 -0.451654 0.451654 -0.420317 -0.786983 
-0.801506 -0.42284 -0.42284 0.801506 -0.42284 -0.42284 -0.420317 -0.451654 -0.786983 
-0.420317 -0.786983 -0.451654 -0 -0.593652 -0.804722 -0 -0.804722 -0.593652 
0.420317 -0.451654 -0.786983 0.420317 -0.786983 -0.451654 -0.786983 -0.451654 -0.420317 
-0.451654 -0.786983 -0.420317 0.451654 -0.786983 -0.420317 0.786983 -0.451654 -0.420317 
-0.42284 -0.801506 -0.42284 -0 -0.889025 -0.457859 0.42284 -0.801506 -0.42284 
-0.420317 0.786983 -0.451654 0 0.804722 -0.593652 0.420317 0.786983 -0.451654 
-0.42284 0.42284 -0.801506 0 0.457859 -0.889025 0.42284 0.42284 -0.801506 
-0.786983 0.420317 -0.451654 -0.451654 0.420317 -0.786983 -0.420317 0.451654 -0.786983 
0 0.593652 -0.804722 0.420317 0.451654 -0.786983 0.786983 0.420317 -0.451654 
0.451654 0.420317 -0.786983 -0.457859 -0 -0.889025 -0 -0 -1 
0.457859 -0 -0.889025 -0.804722 -0 -0.593652 -0.593652 -0 -0.804722 
0.804722 -0 -0.593652 0.593652 -0 -0.804722 -0.42284 -0.42284 -0.801506 
-0 -0.457859 -0.889025 0.42284 -0.42284 -0.801506 -0.786983 -0.420317 -0.451654 
-0.451654 -0.420317 -0.786983 0.786983 -0.420317 -0.451654 0.451654 -0.420317 -0.786983 
-0.420317 -0.451654 -0.786983 -0.420317 -0.786983 -0.451654 -0 -0.593652 -0.804722 
-0 -0.804722 -0.593652 0.420317 -0.451654 -0.786983 0.420317 -0.786983 -0.451654 
-0.42284 0.42284 -0.801506 0 0.457859 -0.889025 0.42284 0.42284 -0.801506 
-0.457859 -0 -0.889025 -0 -0 -1 0.457859 -0 -0.889025 
-0.42284 -0.42284 -0.801506 -0 -0.457859 -0.889025 0.42284 -0.42284 -0.801506 

