# vtk DataFile Version 4.0
vtk output
ASCII
DATASET POLYDATA
POINTS 126 float
-26 -84 13.8579 -26 -84.1971 14 -25.8029 -84 14 
-28 -84 13.4003 -28 -84.8267 14 -30 -84 13.8579 
-30 -84.1971 14 -30.1971 -84 14 -26 -82 13.4003 
-25.1733 -82 14 -28 -82 13 -30 -82 13.4003 
-30.8267 -82 14 -26 -80 13.8579 -25.8029 -80 14 
-28 -80 13.4003 -30 -80 13.8579 -30.1971 -80 14 
-26 -79.8029 14 -28 -79.1733 14 -30 -79.8029 14 
-26 -86 15.8029 -26 -86.1421 16 -25.8029 -86 16 
-28 -86 15.1733 -28 -86.5997 16 -30 -86 15.8029 
-30 -86.1421 16 -30.1971 -86 16 -24 -84 15.8029 
-24 -84.1971 16 -23.8579 -84 16 -32 -84 15.8029 
-32 -84.1971 16 -32.1421 -84 16 -24 -82 15.1733 
-23.4003 -82 16 -32 -82 15.1733 -32.5997 -82 16 
-24 -80 15.8029 -23.8579 -80 16 -32 -80 15.8029 
-32.1421 -80 16 -24 -79.8029 16 -26 -78 15.8029 
-25.8029 -78 16 -28 -78 15.1733 -30 -78 15.8029 
-30.1971 -78 16 -32 -79.8029 16 -26 -77.8579 16 
-28 -77.4003 16 -30 -77.8579 16 -26 -86.5997 18 
-25.1733 -86 18 -28 -87 18 -30 -86.5997 18 
-30.8267 -86 18 -24 -84.8267 18 -23.4003 -84 18 
-32 -84.8267 18 -32.5997 -84 18 -23 -82 18 
-33 -82 18 -23.4003 -80 18 -32.5997 -80 18 
-24 -79.1733 18 -25.1733 -78 18 -30.8267 -78 18 
-32 -79.1733 18 -26 -77.4003 18 -28 -77 18 
-30 -77.4003 18 -26 -86.1421 20 -25.8029 -86 20 
-28 -86.5997 20 -30 -86.1421 20 -30.1971 -86 20 
-24 -84.1971 20 -23.8579 -84 20 -32 -84.1971 20 
-32.1421 -84 20 -23.4003 -82 20 -32.5997 -82 20 
-23.8579 -80 20 -32.1421 -80 20 -24 -79.8029 20 
-25.8029 -78 20 -30.1971 -78 20 -32 -79.8029 20 
-26 -77.8579 20 -28 -77.4003 20 -30 -77.8579 20 
-26 -86 20.1971 -28 -86 20.8267 -30 -86 20.1971 
-24 -84 20.1971 -25.8029 -84 22 -26 -84.1971 22 
-28 -84.8267 22 -30 -84.1971 22 -32 -84 20.1971 
-30.1971 -84 22 -24 -82 20.8267 -25.1733 -82 22 
-32 -82 20.8267 -30.8267 -82 22 -24 -80 20.1971 
-25.8029 -80 22 -32 -80 20.1971 -30.1971 -80 22 
-26 -79.8029 22 -26 -78 20.1971 -28 -79.1733 22 
-28 -78 20.8267 -30 -79.8029 22 -30 -78 20.1971 
-26 -84 22.1421 -28 -84 22.5997 -30 -84 22.1421 
-26 -82 22.5997 -28 -82 23 -30 -82 22.5997 
-26 -80 22.1421 -28 -80 22.5997 -30 -80 22.1421 

TRIANGLE_STRIPS 49 395
57 2 0 1 4 21 24 25 27 56 28 57 60 80 61 81 63 83 65 85 69 89 88 109 116 110 115 125 124 121 120 117 104 97 96 78 79 58 59 30 31 29 35 2 9 8 13 15 18 19 46 47 51 52 72 68 88 69 
11 4 0 3 10 11 16 17 20 48 47 52 
12 6 3 5 11 12 17 37 41 42 49 65 69 
4 3 6 4 24 
10 6 5 7 12 32 37 38 42 63 65 
4 2 8 0 10 
4 9 14 13 18 
4 8 15 10 16 
4 15 19 16 20 
18 23 21 22 25 55 56 76 57 77 80 95 100 99 119 118 122 121 125 
11 27 24 26 6 28 33 60 34 61 38 63 
3 27 26 28 
8 29 23 30 54 58 74 78 97 
5 23 29 21 2 1 
4 7 32 33 34 
3 6 7 33 
6 31 36 35 39 9 14 
3 38 34 32 
14 36 40 39 43 18 44 46 50 51 71 72 92 88 116 
13 44 43 45 66 67 86 87 111 112 113 114 115 116 
3 18 14 39 
3 19 47 20 
5 17 48 49 68 69 
3 17 49 41 
9 44 45 50 70 71 91 92 114 116 
8 54 22 53 55 75 76 95 77 
3 23 22 54 
8 31 59 36 62 40 64 66 86 
3 43 40 66 
7 45 67 70 90 91 112 114 
3 68 48 52 
7 74 53 73 75 94 95 99 
3 54 53 74 
12 59 79 62 82 64 84 86 107 108 103 104 96 
4 67 87 90 112 
7 74 73 93 94 98 99 118 
4 97 74 98 93 
7 100 101 102 105 106 109 110 
9 100 80 101 81 105 83 109 85 89 
4 96 103 82 84 
3 79 96 82 
3 103 107 84 
7 86 108 111 123 113 124 115 
5 97 98 117 118 121 
4 100 102 119 122 
4 102 106 122 125 
4 108 120 123 124 
3 104 120 108 
3 106 110 125 

POINT_DATA 126
SCALARS scalars unsigned_short
LOOKUP_TABLE default
1 1 1 1 1 1 1 1 1 
1 1 1 1 1 1 1 1 1 
1 1 1 1 1 1 1 1 1 
1 1 1 1 1 1 1 1 1 
1 1 1 1 1 1 1 1 1 
1 1 1 1 1 1 1 1 1 
1 1 1 1 1 1 1 1 1 
1 1 1 1 1 1 1 1 1 
1 1 1 1 1 1 1 1 1 
1 1 1 1 1 1 1 1 1 
1 1 1 1 1 1 1 1 1 
1 1 1 1 1 1 1 1 1 
1 1 1 1 1 1 1 1 1 
1 1 1 1 1 1 1 1 1 

NORMALS normals float
-0.42284 0.42284 0.801506 -0.420317 0.451654 0.786983 -0.451654 0.420317 0.786983 
-0 0.457859 0.889025 -0 0.593652 0.804722 0.42284 0.42284 0.801506 
0.420317 0.451654 0.786983 0.451654 0.420317 0.786983 -0.457859 -0 0.889025 
-0.593652 -0 0.804722 -0 -0 1 0.457859 -0 0.889025 
0.593652 -0 0.804722 -0.42284 -0.42284 0.801506 -0.451654 -0.420317 0.786983 
-0 -0.457859 0.889025 0.42284 -0.42284 0.801506 0.451654 -0.420317 0.786983 
-0.420317 -0.451654 0.786983 -0 -0.593652 0.804722 0.420317 -0.451654 0.786983 
-0.420317 0.786983 0.451654 -0.42284 0.801506 0.42284 -0.451654 0.786983 0.420317 
-0 0.804722 0.593652 -0 0.889025 0.457859 0.420317 0.786983 0.451654 
0.42284 0.801506 0.42284 0.451654 0.786983 0.420317 -0.786983 0.420317 0.451654 
-0.786983 0.451654 0.420317 -0.801506 0.42284 0.42284 0.786983 0.420317 0.451654 
0.786983 0.451654 0.420317 0.801506 0.42284 0.42284 -0.804722 -0 0.593652 
-0.889025 -0 0.457859 0.804722 -0 0.593652 0.889025 -0 0.457859 
-0.786983 -0.420317 0.451654 -0.801506 -0.42284 0.42284 0.786983 -0.420317 0.451654 
0.801506 -0.42284 0.42284 -0.786983 -0.451654 0.420317 -0.420317 -0.786983 0.451654 
-0.451654 -0.786983 0.420317 -0 -0.804722 0.593652 0.420317 -0.786983 0.451654 
0.451654 -0.786983 0.420317 0.786983 -0.451654 0.420317 -0.42284 -0.801506 0.42284 
-0 -0.889025 0.457859 0.42284 -0.801506 0.42284 -0.457859 0.889025 -0 
-0.593652 0.804722 -0 0 1 -0 0.457859 0.889025 -0 
0.593652 0.804722 -0 -0.804722 0.593652 -0 -0.889025 0.457859 -0 
0.804722 0.593652 -0 0.889025 0.457859 -0 -1 -0 -0 
1 -0 -0 -0.889025 -0.457859 -0 0.889025 -0.457859 -0 
-0.804722 -0.593652 -0 -0.593652 -0.804722 -0 0.593652 -0.804722 -0 
0.804722 -0.593652 -0 -0.457859 -0.889025 -0 -0 -1 -0 
0.457859 -0.889025 -0 -0.42284 0.801506 -0.42284 -0.451654 0.786983 -0.420317 
0 0.889025 -0.457859 0.42284 0.801506 -0.42284 0.451654 0.786983 -0.420317 
-0.786983 0.451654 -0.420317 -0.801506 0.42284 -0.42284 0.786983 0.451654 -0.420317 
0.801506 0.42284 -0.42284 -0.889025 -0 -0.457859 0.889025 -0 -0.457859 
-0.801506 -0.42284 -0.42284 0.801506 -0.42284 -0.42284 -0.786983 -0.451654 -0.420317 
-0.451654 -0.786983 -0.420317 0.451654 -0.786983 -0.420317 0.786983 -0.451654 -0.420317 
-0.42284 -0.801506 -0.42284 -0 -0.889025 -0.457859 0.42284 -0.801506 -0.42284 
-0.420317 0.786983 -0.451654 0 0.804722 -0.593652 0.420317 0.786983 -0.451654 
-0.786983 0.420317 -0.451654 -0.451654 0.420317 -0.786983 -0.420317 0.451654 -0.786983 
0 0.593652 -0.804722 0.420317 0.451654 -0.786983 0.786983 0.420317 -0.451654 
0.451654 0.420317 -0.786983 -0.804722 -0 -0.593652 -0.593652 -0 -0.804722 
0.804722 -0 -0.593652 0.593652 -0 -0.804722 -0.786983 -0.420317 -0.451654 
-0.451654 -0.420317 -0.786983 0.786983 -0.420317 -0.451654 0.451654 -0.420317 -0.786983 
-0.420317 -0.451654 -0.786983 -0.420317 -0.786983 -0.451654 -0 -0.593652 -0.804722 
-0 -0.804722 -0.593652 0.420317 -0.451654 -0.786983 0.420317 -0.786983 -0.451654 
-0.42284 0.42284 -0.801506 0 0.457859 -0.889025 0.42284 0.42284 -0.801506 
-0.457859 -0 -0.889025 -0 -0 -1 0.457859 -0 -0.889025 
-0.42284 -0.42284 -0.801506 -0 -0.457859 -0.889025 0.42284 -0.42284 -0.801506 

