# vtk DataFile Version 4.0
vtk output
ASCII
DATASET POLYDATA
POINTS 1236 float
9.70149 -11.576 -8.55966 9.70149 -11.5366 -8.53124 9.74292 -11.576 -8.53124 
9.30149 -11.576 -8.59913 9.30149 -11.4793 -8.53124 9.1483 -11.576 -8.53124 
9.70149 -11.976 -8.67241 9.96631 -11.976 -8.53124 9.30149 -11.976 -8.71405 
8.90149 -11.8228 -8.53124 8.90149 -11.976 -8.59913 8.80483 -11.976 -8.53124 
10.1015 -12.376 -8.59913 10.1015 -12.1935 -8.53124 10.2029 -12.376 -8.53124 
9.70149 -12.376 -8.71405 9.30149 -12.376 -8.73124 8.90149 -12.376 -8.65118 
8.73615 -12.376 -8.53124 10.1015 -12.776 -8.65118 10.292 -12.776 -8.53124 
9.70149 -12.776 -8.73124 9.30149 -12.776 -8.73124 8.90149 -12.776 -8.64251 
8.75967 -12.776 -8.53124 -8.29851 -12.776 -8.59913 -8.29851 -12.6793 -8.53124 
-8.16651 -12.776 -8.53124 -8.69851 -12.776 -8.59913 -8.69851 -12.6793 -8.53124 
-8.8517 -12.776 -8.53124 10.1015 -13.176 -8.57225 10.1762 -13.176 -8.53124 
9.70149 -13.176 -8.65118 9.30149 -13.176 -8.64251 8.98424 -13.176 -8.53124 
8.90149 -13.0933 -8.53124 -7.89851 -13.176 -8.58794 -7.89851 -13.0621 -8.53124 
-7.82446 -13.176 -8.53124 -8.29851 -13.176 -8.71405 -8.69851 -13.176 -8.71405 
-9.09851 -13.0228 -8.53124 -9.09851 -13.176 -8.59913 -9.19988 -13.176 -8.53124 
10.1015 -13.2557 -8.53124 9.70149 -13.3665 -8.53124 9.30149 -13.3237 -8.53124 
-7.89851 -13.576 -8.65118 -7.73317 -13.576 -8.53124 -8.29851 -13.576 -8.73124 
-8.69851 -13.576 -8.73124 -9.09851 -13.576 -8.65118 -9.28897 -13.576 -8.53124 
-7.89851 -13.976 -8.58794 -7.82446 -13.976 -8.53124 -8.29851 -13.976 -8.71405 
-8.69851 -13.976 -8.73124 -9.09851 -13.976 -8.65118 -9.29851 -13.976 -8.53124 
-7.89851 -14.0752 -8.53124 -8.165 -14.376 -8.53124 -8.29851 -14.376 -8.61406 
-8.69851 -14.376 -8.69573 -9.09851 -14.376 -8.59913 -9.21193 -14.376 -8.53124 
-8.29851 -14.5095 -8.53124 -8.69851 -14.7614 -8.53124 -9.09851 -14.5292 -8.53124 
9.70149 -11.176 -8.20528 9.70149 -11.1193 -8.13124 9.80071 -11.176 -8.13124 
9.30149 -11.176 -8.27306 9.30149 -11.0647 -8.13124 8.90842 -11.176 -8.13124 
10.1015 -11.576 -8.27256 10.1015 -11.4045 -8.13124 10.2916 -11.576 -8.13124 
8.90149 -11.576 -8.41818 8.90149 -11.179 -8.13124 8.50444 -11.576 -8.13124 
10.5015 -11.976 -8.2154 10.5015 -11.828 -8.13124 10.6297 -11.976 -8.13124 
10.1015 -11.976 -8.44707 8.50149 -11.976 -8.27306 8.50149 -11.5829 -8.13124 
8.39022 -11.976 -8.13124 10.5015 -12.376 -8.33124 10.8001 -12.376 -8.13124 
8.50149 -12.376 -8.29658 8.38155 -12.376 -8.13124 -8.29851 -12.376 -8.30189 
-8.29851 -12.2054 -8.13124 -7.9631 -12.376 -8.13124 -8.69851 -12.376 -8.30966 
-8.69851 -12.1833 -8.13124 -9.09851 -12.376 -8.20433 -9.09851 -12.2882 -8.13124 
-9.21446 -12.376 -8.13124 10.9015 -12.776 -8.19913 10.9015 -12.576 -8.13124 
10.9982 -12.776 -8.13124 10.5015 -12.776 -8.39441 8.50149 -12.776 -8.19371 
8.46048 -12.776 -8.13124 -7.89851 -12.776 -8.36149 -7.89851 -12.4321 -8.13124 
-7.70524 -12.776 -8.13124 -9.09851 -12.776 -8.42186 -9.49851 -12.66 -8.13124 
-9.49851 -12.776 -8.20433 -9.59014 -12.776 -8.13124 10.9015 -13.176 -8.19913 
10.9982 -13.176 -8.13124 10.5015 -13.176 -8.37303 8.90149 -13.176 -8.46665 
8.73084 -13.176 -8.13124 8.50149 -12.8385 -8.13124 -7.49851 -13.176 -8.17065 
-7.49851 -13.1294 -8.13124 -7.47009 -13.176 -8.13124 -9.49851 -13.176 -8.33124 
-9.78329 -13.176 -8.13124 10.9015 -13.3585 -8.13124 10.7733 -13.576 -8.13124 
10.5015 -13.576 -8.28945 10.1015 -13.576 -8.39007 9.70149 -13.576 -8.39441 
9.30149 -13.576 -8.27265 9.16008 -13.576 -8.13124 8.90149 -13.3529 -8.13124 
-7.49851 -13.576 -8.29658 -7.37857 -13.576 -8.13124 -9.49851 -13.576 -8.39441 
-9.89851 -13.3935 -8.13124 -9.89851 -13.576 -8.19913 -9.99517 -13.576 -8.13124 
10.5015 -13.976 -8.17225 10.5674 -13.976 -8.13124 10.1015 -13.976 -8.25118 
9.70149 -13.976 -8.18794 9.60779 -13.976 -8.13124 9.30149 -13.7275 -8.13124 
-7.49851 -13.976 -8.17065 -7.47009 -13.976 -8.13124 -9.49851 -13.976 -8.41129 
-9.89851 -13.976 -8.25118 -10.0639 -13.976 -8.13124 10.5015 -14.0385 -8.13124 
10.1015 -14.1413 -8.13124 9.70149 -14.05 -8.13124 -7.49851 -14.0154 -8.13124 
-7.89851 -14.376 -8.27797 -7.78443 -14.376 -8.13124 -9.49851 -14.376 -8.37303 
-9.89851 -14.376 -8.19913 -9.99517 -14.376 -8.13124 -7.89851 -14.4947 -8.13124 
-8.29851 -14.776 -8.30273 -8.15719 -14.776 -8.13124 -8.69851 -14.776 -8.52276 
-9.09851 -14.776 -8.42186 -9.49851 -14.776 -8.24062 -9.71118 -14.776 -8.13124 
-9.89851 -14.5413 -8.13124 -8.29851 -14.9402 -8.13124 -8.60481 -15.176 -8.13124 
-8.69851 -15.176 -8.1988 -9.09851 -15.176 -8.20433 -9.26385 -15.176 -8.13124 
-9.49851 -14.9887 -8.13124 -8.69851 -15.2372 -8.13124 -9.09851 -15.2638 -8.13124 
10.1015 -11.176 -7.90273 10.1015 -11.0347 -7.73124 10.3272 -11.176 -7.73124 
9.70149 -10.9128 -7.73124 9.30149 -10.9172 -7.73124 8.90149 -11.176 -8.12499 
8.90149 -11.0476 -7.73124 8.74986 -11.176 -7.73124 10.9015 -11.576 -7.80433 
10.9015 -11.4882 -7.73124 11.0174 -11.576 -7.73124 10.5015 -11.576 -7.98072 
10.5015 -11.2947 -7.73124 8.50149 -11.576 -8.11944 8.50149 -11.4793 -7.73124 
8.4336 -11.576 -7.73124 11.3015 -11.976 -7.78794 11.3015 -11.8768 -7.73124 
11.3755 -11.976 -7.73124 10.9015 -11.976 -7.97303 8.31868 -11.976 -7.73124 
-8.29851 -11.976 -7.77534 -8.29851 -11.9476 -7.73124 -8.25909 -11.976 -7.73124 
-8.69851 -11.976 -7.89658 -8.69851 -11.8561 -7.73124 -9.09851 -11.976 -7.80528 
-9.09851 -11.9193 -7.73124 -9.19773 -11.976 -7.73124 11.3015 -12.376 -7.86807 
11.4762 -12.376 -7.73124 10.9015 -12.376 -8.06335 8.30149 -12.376 -7.73124 
-7.89851 -12.376 -7.98824 -7.89851 -12.302 -7.73124 -7.8418 -12.376 -7.73124 
-9.49851 -12.376 -7.92308 -9.49851 -12.1842 -7.73124 -9.71898 -12.376 -7.73124 
11.3015 -12.776 -7.90966 11.4942 -12.776 -7.73124 8.38155 -12.776 -7.73124 
-7.63534 -12.776 -7.73124 -9.89851 -12.776 -7.88176 -9.89851 -12.5661 -7.73124 
-10.0895 -12.776 -7.73124 11.3015 -13.176 -7.90966 11.4942 -13.176 -7.73124 
8.67991 -13.176 -7.73124 8.50149 -12.9485 -7.73124 -7.49851 -12.9855 -7.73124 
-7.37857 -13.176 -7.73124 -9.89851 -13.176 -8.04707 -10.2985 -13.0931 -7.73124 
-10.2985 -13.176 -7.77721 -10.3445 -13.176 -7.73124 11.3015 -13.576 -7.8154 
11.4116 -13.576 -7.73124 10.9015 -13.576 -8.04707 8.98565 -13.576 -7.73124 
8.90149 -13.4659 -7.73124 -7.3157 -13.576 -7.73124 -10.2985 -13.576 -7.90189 
-10.4692 -13.576 -7.73124 11.3015 -13.776 -7.73124 11.1863 -13.976 -7.73124 
10.9015 -13.976 -7.93124 9.30149 -13.976 -7.87104 9.2019 -13.976 -7.73124 
-7.43062 -13.976 -7.73124 -10.2985 -13.976 -7.93124 -10.4985 -13.976 -7.73124 
10.9015 -14.376 -7.78808 10.9846 -14.376 -7.73124 10.5015 -14.376 -7.90966 
10.1015 -14.376 -7.93124 9.70149 -14.376 -7.84531 9.55476 -14.376 -7.73124 
9.30149 -14.1227 -7.73124 -7.49851 -14.0727 -7.73124 -7.72009 -14.376 -7.73124 
-10.2985 -14.376 -7.90966 -10.4912 -14.376 -7.73124 10.9015 -14.455 -7.73124 
10.5015 -14.5687 -7.73124 10.1015 -14.576 -7.73124 9.70149 -14.4901 -7.73124 
-7.89851 -14.5941 -7.73124 -8.03534 -14.776 -7.73124 -9.89851 -14.776 -8.03847 
-10.2985 -14.776 -7.86807 -10.4732 -14.776 -7.73124 -8.29851 -15.176 -7.78256 
-8.26906 -15.176 -7.73124 -9.49851 -15.176 -8.03847 -9.89851 -15.176 -7.93124 
-10.2985 -15.176 -7.78794 -10.3726 -15.176 -7.73124 -8.29851 -15.208 -7.73124 
-8.69851 -15.4666 -7.73124 -9.09851 -15.576 -7.81901 -8.94532 -15.576 -7.73124 
-9.49851 -15.576 -7.85961 -9.89851 -15.576 -7.78794 -9.99773 -15.576 -7.73124 
-10.2985 -15.2752 -7.73124 -9.09851 -15.6491 -7.73124 -9.49851 -15.7276 -7.73124 
-9.89851 -15.65 -7.73124 10.1015 -10.776 -7.40869 10.1015 -10.7193 -7.33124 
10.2154 -10.776 -7.33124 9.70149 -10.776 -7.5217 9.70149 -10.6561 -7.33124 
9.30149 -10.776 -7.41091 9.30149 -10.735 -7.33124 9.23902 -10.776 -7.33124 
10.9015 -11.176 -7.41901 10.9015 -11.1029 -7.33124 11.0174 -11.176 -7.33124 
10.5015 -11.176 -7.61259 10.5015 -10.9265 -7.33124 8.90149 -11.0244 -7.33124 
8.77312 -11.176 -7.33124 11.3015 -11.576 -7.52308 11.3015 -11.3842 -7.33124 
11.5015 -11.576 -7.33124 8.50149 -11.576 -7.53124 8.56938 -11.576 -7.33124 
11.7015 -11.976 -7.44531 11.7015 -11.8216 -7.33124 11.8156 -11.976 -7.33124 
8.50149 -11.6959 -7.33124 8.36032 -11.976 -7.33124 -8.29851 -11.8857 -7.33124 
-8.20112 -11.976 -7.33124 -8.69851 -11.776 -7.33124 -9.09851 -11.7932 -7.33124 
-9.49851 -11.976 -7.46475 -9.49851 -11.8932 -7.33124 -9.6492 -11.976 -7.33124 
11.7015 -12.376 -7.53124 11.9015 -12.376 -7.33124 8.30149 -12.376 -7.33124 
-7.89851 -12.376 -7.58612 -7.99128 -12.376 -7.33124 -9.89851 -12.376 -7.58451 
-9.89851 -12.1321 -7.33124 -10.2685 -12.376 -7.33124 11.7015 -12.776 -7.53124 
11.9015 -12.776 -7.33124 8.38155 -12.776 -7.33124 -7.89851 -12.5406 -7.33124 
-7.74799 -12.776 -7.33124 -10.2985 -12.776 -7.55261 -10.2985 -12.4102 -7.33124 
-10.4918 -12.776 -7.33124 11.7015 -13.176 -7.53124 11.9015 -13.176 -7.33124 
8.63832 -13.176 -7.33124 8.50149 -12.9665 -7.33124 -7.49851 -13.1346 -7.33124 
-7.47009 -13.176 -7.33124 -10.6254 -13.176 -7.33124 11.7015 -13.576 -7.50966 
11.8942 -13.576 -7.33124 8.90149 -13.576 -7.51373 8.8336 -13.576 -7.33124 
-7.43062 -13.576 -7.33124 -10.6985 -13.3292 -7.33124 -10.6985 -13.576 -7.46694 
-10.8232 -13.576 -7.33124 11.7015 -13.976 -7.4154 11.8116 -13.976 -7.33124 
11.3015 -13.976 -7.64707 9.0597 -13.976 -7.33124 8.90149 -13.6894 -7.33124 
-7.49851 -13.7292 -7.33124 -7.49851 -13.976 -7.57805 -7.60789 -13.976 -7.33124 
-10.6985 -13.976 -7.53124 -10.8985 -13.976 -7.33124 11.7015 -14.176 -7.33124 
11.5863 -14.376 -7.33124 11.3015 -14.376 -7.53124 9.30149 -14.376 -7.43046 
9.24479 -14.376 -7.33124 -7.81434 -14.376 -7.33124 -10.6985 -14.376 -7.53124 
-10.8985 -14.376 -7.33124 11.3015 -14.776 -7.37553 11.3604 -14.776 -7.33124 
10.9015 -14.776 -7.50966 10.5015 -14.776 -7.53124 10.1015 -14.776 -7.52392 
9.70149 -14.776 -7.38738 9.64535 -14.776 -7.33124 9.30149 -14.45 -7.33124 
-7.89851 -14.5042 -7.33124 -8.05672 -14.776 -7.33124 -10.6985 -14.776 -7.53124 
-10.8985 -14.776 -7.33124 11.3015 -14.8321 -7.33124 10.9015 -14.9687 -7.33124 
10.5015 -14.976 -7.33124 10.1015 -14.9544 -7.33124 9.70149 -14.8203 -7.33124 
[...]
POINT_DATA 1236
SCALARS scalars unsigned_short
LOOKUP_TABLE default
1 1 1 1 1 1 1 1 1 
1 1 1 1 1 1 1 1 1 
1 1 1 1 1 1 1 1 1 
1 1 1 1 1 1 1 1 1 
1 1 1 1 1 1 1 1 1 
1 1 1 1 1 1 1 1 1 
1 1 1 1 1 1 1 1 1 
1 1 1 1 1 1 1 1 1 
1 1 1 1 1 1 1 1 1 
1 1 1 1 1 1 1 1 1 
1 1 1 1 1 1 1 1 1 
1 1 1 1 1 1 1 1 1 
1 1 1 1 1 1 1 1 1 
1 1 1 1 1 1 1 1 1 
1 1 1 1 1 1 1 1 1 
1 1 1 1 1 1 1 1 1 
1 1 1 1 1 1 1 1 1 
1 1 1 1 1 1 1 1 1 
1 1 1 1 1 1 1 1 1 
1 1 1 1 1 1 1 1 1 
1 1 1 1 1 1 1 1 1 
1 1 1 1 1 1 1 1 1 
1 1 1 1 1 1 1 1 1 
1 1 1 1 1 1 1 1 1 
1 1 1 1 1 1 1 1 1 
1 1 1 1 1 1 1 1 1 
1 1 1 1 1 1 1 1 1 
1 1 1 1 1 1 1 1 1 
1 1 1 1 1 1 1 1 1 
1 1 1 1 1 1 1 1 1 
1 1 1 1 1 1 1 1 1 
1 1 1 1 1 1 1 1 1 
1 1 1 1 1 1 1 1 1 
1 1 1 1 1 1 1 1 1 
1 1 1 1 1 1 1 1 1 
1 1 1 1 1 1 1 1 1 
1 1 1 1 1 1 1 1 1 
1 1 1 1 1 1 1 1 1 
1 1 1 1 1 1 1 1 1 
1 1 1 1 1 1 1 1 1 
1 1 1 1 1 1 1 1 1 
1 1 1 1 1 1 1 1 1 
1 1 1 1 1 1 1 1 1 
1 1 1 1 1 1 1 1 1 
1 1 1 1 1 1 1 1 1 
1 1 1 1 1 1 1 1 1 
1 1 1 1 1 1 1 1 1 
1 1 1 1 1 1 1 1 1 
1 1 1 1 1 1 1 1 1 
1 1 1 1 1 1 1 1 1 
1 1 1 1 1 1 1 1 1 
1 1 1 1 1 1 1 1 1 
1 1 1 1 1 1 1 1 1 
1 1 1 1 1 1 1 1 1 
1 1 1 1 1 1 1 1 1 
1 1 1 1 1 1 1 1 1 
1 1 1 1 1 1 1 1 1 
1 1 1 1 1 1 1 1 1 
1 1 1 1 1 1 1 1 1 
1 1 1 1 1 1 1 1 1 
1 1 1 1 1 1 1 1 1 
1 1 1 1 1 1 1 1 1 
1 1 1 1 1 1 1 1 1 
1 1 1 1 1 1 1 1 1 
1 1 1 1 1 1 1 1 1 
1 1 1 1 1 1 1 1 1 
1 1 1 1 1 1 1 1 1 
1 1 1 1 1 1 1 1 1 
1 1 1 1 1 1 1 1 1 
1 1 1 1 1 1 1 1 1 
1 1 1 1 1 1 1 1 1 
1 1 1 1 1 1 1 1 1 
1 1 1 1 1 1 1 1 1 
1 1 1 1 1 1 1 1 1 
1 1 1 1 1 1 1 1 1 
1 1 1 1 1 1 1 1 1 
1 1 1 1 1 1 1 1 1 
1 1 1 1 1 1 1 1 1 
1 1 1 1 1 1 1 1 1 
1 1 1 1 1 1 1 1 1 
1 1 1 1 1 1 1 1 1 
1 1 1 1 1 1 1 1 1 
1 1 1 1 1 1 1 1 1 
1 1 1 1 1 1 1 1 1 
1 1 1 1 1 1 1 1 1 
1 1 1 1 1 1 1 1 1 
1 1 1 1 1 1 1 1 1 
1 1 1 1 1 1 1 1 1 
1 1 1 1 1 1 1 1 1 
1 1 1 1 1 1 1 1 1 
1 1 1 1 1 1 1 1 1 
1 1 1 1 1 1 1 1 1 
1 1 1 1 1 1 1 1 1 
1 1 1 1 1 1 1 1 1 
1 1 1 1 1 1 1 1 1 
1 1 1 1 1 1 1 1 1 
1 1 1 1 1 1 1 1 1 
1 1 1 1 1 1 1 1 1 
1 1 1 1 1 1 1 1 1 
1 1 1 1 1 1 1 1 1 
1 1 1 1 1 1 1 1 1 
1 1 1 1 1 1 1 1 1 
1 1 1 1 1 1 1 1 1 
1 1 1 1 1 1 1 1 1 
1 1 1 1 1 1 1 1 1 
1 1 1 1 1 1 1 1 1 
1 1 1 1 1 1 1 1 1 
1 1 1 1 1 1 1 1 1 
1 1 1 1 1 1 1 1 1 
1 1 1 1 1 1 1 1 1 
1 1 1 1 1 1 1 1 1 
1 1 1 1 1 1 1 1 1 
1 1 1 1 1 1 1 1 1 
1 1 1 1 1 1 1 1 1 
1 1 1 1 1 1 1 1 1 
1 1 1 1 1 1 1 1 1 
1 1 1 1 1 1 1 1 1 
1 1 1 1 1 1 1 1 1 
1 1 1 1 1 1 1 1 1 
1 1 1 1 1 1 1 1 1 
1 1 1 1 1 1 1 1 1 
1 1 1 1 1 1 1 1 1 
1 1 1 1 1 1 1 1 1 
1 1 1 1 1 1 1 1 1 
1 1 1 1 1 1 1 1 1 
1 1 1 1 1 1 1 1 1 
1 1 1 1 1 1 1 1 1 
1 1 1 1 1 1 1 1 1 
1 1 1 1 1 1 1 1 1 
1 1 1 1 1 1 1 1 1 
1 1 1 1 1 1 1 1 1 
1 1 1 1 1 1 1 1 1 
1 1 1 1 1 1 1 1 1 
1 1 1 1 1 1 1 1 1 
1 1 1 1 1 1 1 1 1 
1 1 1 1 1 1 1 1 1 
1 1 1 1 1 1 1 1 1 
1 1 1 
NORMALS normals float
0.339355 0.458496 -0.821352 0.337792 0.483926 -0.807287 0.36715 0.460368 -0.808246 
-0.152812 0.482872 -0.862255 -0.142807 0.541592 -0.828422 -0.265698 0.481755 -0.835055 
0.321747 0.206263 -0.924086 0.475596 0.305312 -0.824981 -0.0934459 0.186892 -0.977926 
-0.471134 0.333352 -0.816645 -0.471552 0.261928 -0.842041 -0.529949 0.249122 -0.810612 
0.464914 0.233897 -0.853901 0.50272 0.285804 -0.815836 0.508156 0.233576 -0.828987 
0.186892 0.0934459 -0.977926 -0.0905277 0.0284303 -0.995488 -0.457162 0.0551789 -0.88767 
-0.59328 0.0354097 -0.804217 0.42734 -0.0311788 -0.903553 0.51256 -0.00163544 -0.85865 
0.118172 -0.0899297 -0.988913 -0.126397 -0.126397 -0.983894 -0.494145 -0.164908 -0.853596 
-0.620726 -0.188973 -0.760913 0.224377 0.476152 -0.850255 0.214082 0.529073 -0.821128 
0.332064 0.488352 -0.806998 -0.196691 0.479066 -0.855458 -0.185354 0.530544 -0.827144 
-0.291912 0.475444 -0.829904 0.352007 -0.337524 -0.873022 0.380205 -0.310395 -0.871263 
0.0870557 -0.425924 -0.900561 -0.165897 -0.484864 -0.858712 -0.476744 -0.552193 -0.683958 
-0.554554 -0.475847 -0.682671 0.511913 0.297246 -0.805972 0.531792 0.348308 -0.771932 
0.560199 0.301832 -0.771411 0.165658 0.18512 -0.968653 -0.156293 0.185406 -0.970153 
-0.461713 0.333222 -0.822061 -0.461274 0.263538 -0.847216 -0.505053 0.257037 -0.823925 
0.319854 -0.361077 -0.875966 0.0251573 -0.512399 -0.858379 -0.205165 -0.591604 -0.779687 
0.457859 0 -0.889025 0.593652 0 -0.804722 0.118653 0 -0.992936 
-0.118605 0.028346 -0.992537 -0.426559 0.0679762 -0.901902 -0.510955 0.079096 -0.855961 
0.507236 -0.323941 -0.798608 0.554825 -0.329327 -0.764011 0.194372 -0.165356 -0.96689 
-0.0904182 -0.0567917 -0.994283 -0.416739 -0.0683194 -0.906455 -0.487576 -0.0543561 -0.871387 
0.540073 -0.38612 -0.747819 0.467697 -0.478953 -0.742876 0.387999 -0.419455 -0.820679 
-0.0197809 -0.269546 -0.962784 -0.411864 -0.270663 -0.870121 -0.446097 -0.258893 -0.856721 
0.432682 -0.49136 -0.755878 0.0649504 -0.54409 -0.836509 -0.396005 -0.34495 -0.850993 
0.303099 0.745871 -0.593134 0.299434 0.770205 -0.563137 0.358689 0.731189 -0.580263 
-0.0720856 0.76579 -0.639038 -0.0558583 0.835911 -0.546015 -0.433678 0.739246 -0.515207 
0.547758 0.476351 -0.687787 0.523037 0.563879 -0.63912 0.512748 0.510339 -0.690393 
-0.456337 0.456337 -0.76388 -0.440396 0.735803 -0.514437 -0.762939 0.456638 -0.45761 
0.522267 0.360319 -0.772921 0.509355 0.420602 -0.750767 0.513039 0.343839 -0.78649 
0.517694 0.342347 -0.784086 -0.785044 0.160287 -0.598342 -0.766256 0.451123 -0.457537 
-0.873248 0.139522 -0.466874 0.573564 0.220191 -0.789012 0.537958 0.259904 -0.801905 
-0.803465 -0.0558685 -0.592725 -0.88576 -0.0856249 -0.456178 0.195494 0.680875 -0.705827 
0.212302 0.741795 -0.636135 0.568639 0.650423 -0.503587 -0.109296 0.650662 -0.751461 
-0.0724021 0.699551 -0.710905 -0.358176 0.56843 -0.740673 -0.349656 0.600234 -0.719347 
-0.412803 0.566967 -0.712841 0.541498 0.146707 -0.827803 0.540299 0.21042 -0.81474 
0.568411 0.137201 -0.811225 0.537129 0.0504853 -0.841988 -0.826415 -0.366519 -0.427437 
-0.840387 -0.383243 -0.383243 0.617126 0.46303 -0.636207 0.642469 0.605632 -0.469515 
0.775081 0.481373 -0.409304 -0.429673 0.429673 -0.794206 -0.554541 0.433755 -0.710169 
-0.553919 0.386067 -0.737649 -0.568642 0.391699 -0.723338 0.527076 -0.160863 -0.834454 
0.558937 -0.157257 -0.814162 0.454661 -0.147384 -0.878386 -0.577379 -0.574736 -0.579924 
-0.723243 -0.645556 -0.245311 -0.828097 -0.424374 -0.366281 0.807904 0.376092 -0.453702 
0.816423 0.396729 -0.419595 0.82147 0.379425 -0.425705 -0.577915 0.22681 -0.783946 
-0.560567 0.306274 -0.76939 0.539429 -0.230592 -0.809842 0.511483 -0.293273 -0.807698 
0.411791 -0.263398 -0.872382 0.14774 -0.403881 -0.902803 -0.111831 -0.538403 -0.835234 
-0.440591 -0.654797 -0.614101 -0.580163 -0.658768 -0.478994 -0.673195 -0.68226 -0.285185 
0.814534 0 -0.580116 0.901345 0 -0.433102 -0.534984 0.102455 -0.838627 
-0.548033 0.276549 -0.789418 -0.533581 0.223433 -0.815701 -0.561866 0.216978 -0.798265 
0.363906 -0.426387 -0.82811 0.39914 -0.414027 -0.818088 0.018289 -0.512145 -0.858705 
-0.319641 -0.553159 -0.769315 -0.384731 -0.568474 -0.7272 -0.539751 -0.611954 -0.578083 
0.815833 -0.426367 -0.390676 0.829256 -0.42974 -0.357292 -0.492821 -0.0300076 -0.869613 
-0.528153 0 -0.849149 -0.605281 0 -0.796012 0.345919 -0.458726 -0.818481 
-0.00320549 -0.599538 -0.80034 -0.324067 -0.575819 -0.750609 0.816709 -0.455896 -0.353759 
0.642447 -0.611209 -0.462261 0.687516 -0.642245 -0.338886 -0.470574 -0.220646 -0.854327 
-0.518105 -0.242393 -0.820251 -0.551725 -0.223014 -0.803657 0.681449 -0.641013 -0.35317 
0.567392 -0.599193 -0.56483 0.657602 -0.618564 -0.430044 0.0709818 -0.552207 -0.83068 
-0.334775 -0.44838 -0.828783 -0.440428 -0.394668 -0.806387 -0.440985 -0.375303 -0.815279 
-0.493883 -0.290507 -0.819564 0.605362 -0.624469 -0.493535 0.345411 -0.714463 -0.608469 
0.257588 -0.714465 -0.650529 -0.180047 -0.598874 -0.780342 -0.24675 -0.544834 -0.801418 
-0.390843 -0.426073 -0.815906 0.277094 -0.734579 -0.619365 -0.134585 -0.633151 -0.762238 
0.451793 0.661763 -0.598291 0.379017 0.702018 -0.602923 0.407651 0.663547 -0.627316 
0.128411 0.833548 -0.537316 -0.176453 0.896271 -0.406895 -0.442661 0.738709 -0.508292 
-0.543776 0.822179 -0.168315 -0.65622 0.748896 -0.0923521 0.42516 0.525817 -0.73672 
0.41604 0.566134 -0.71162 0.455776 0.537573 -0.709424 0.447509 0.539521 -0.713199 
0.394675 0.635673 -0.663439 -0.770501 0.459713 -0.441579 -0.836277 0.544224 0.0667888 
-0.869791 0.487093 0.0787635 0.540123 0.326858 -0.77552 0.548656 0.381305 -0.744032 
0.567752 0.326296 -0.75577 0.471924 0.303649 -0.827699 -0.981469 0.187569 -0.0391866 
0.41507 0.825588 -0.382257 0.430704 0.831118 -0.351762 0.461416 0.821639 -0.334671 
0.00596087 0.811952 -0.583694 0.030663 0.888607 -0.457644 -0.323921 0.772831 -0.545717 
-0.320484 0.803407 -0.501823 -0.374976 0.76082 -0.529666 0.563 0.143402 -0.813921 
0.629314 0.105933 -0.769898 0.51986 0.258883 -0.814079 -0.988913 -0.0899297 -0.118172 
0.717419 0.641524 -0.271581 0.78147 0.621443 0.0557994 0.804706 0.588362 0.0792356 
-0.536158 0.56081 -0.630894 -0.523561 0.625151 -0.578853 -0.527999 0.568982 -0.630457 
0.653673 0.0526983 -0.75494 0.685767 0.0172538 -0.727616 -0.889502 -0.446356 -0.0977356 
0.839665 0.541259 0.0447344 -0.571033 0.432307 -0.697877 -0.537578 0.511106 -0.670656 
-0.582564 0.437902 -0.684734 0.650662 -0.109296 -0.751461 0.684148 -0.0708078 -0.725898 
-0.765907 -0.63319 -0.11161 -0.824063 -0.557963 -0.0979656 0.866405 0.49907 0.0164705 
0.915838 0.401547 0 -0.552698 0.330822 -0.764906 -0.654456 0.352884 -0.668701 
-0.65621 0.336053 -0.675616 -0.675246 0.334171 -0.65755 0.563877 -0.27745 -0.777858 
0.587512 -0.247032 -0.770587 0.534142 -0.299679 -0.790496 -0.775523 -0.546419 -0.316214 
-0.7731 -0.578581 -0.259925 0.995731 -0.0652662 0.0652662 -0.670746 0.161242 -0.723948 
-0.713666 0.158952 -0.682213 0.563903 -0.294778 -0.77144 0.557322 -0.308704 -0.770775 
0.549653 -0.298771 -0.78014 -0.663064 -0.536653 -0.521871 -0.734856 -0.504418 -0.453376 
0.862255 -0.482872 0.152812 -0.69067 0.0077575 -0.723129 -0.706901 0.0241471 -0.706901 
0.411514 -0.455491 -0.78942 0.443915 -0.43134 -0.78542 0.160727 -0.632116 -0.758021 
-0.061595 -0.689379 -0.721777 -0.352249 -0.660336 -0.663233 -0.465386 -0.639143 -0.612301 
-0.681764 -0.535828 -0.498083 0.833328 -0.53451 0.14094 0.769097 -0.637562 0.0447771 
-0.652655 -0.0767056 -0.753763 -0.685652 -0.025149 -0.727495 0.374779 -0.491618 -0.786036 
0.0962167 -0.678488 -0.728283 -0.0770951 -0.708794 -0.70119 -0.353356 -0.676066 -0.646586 
0.790101 -0.612322 -0.028337 0.814808 -0.57048 -0.103157 -0.433495 -0.326812 -0.839807 
-0.547449 -0.145203 -0.824146 -0.624087 -0.106506 -0.774062 0.694988 -0.66119 -0.282524 
0.717445 -0.651782 -0.24587 -0.319105 -0.437602 -0.84064 -0.319537 -0.319537 -0.892072 
-0.512206 -0.333568 -0.79144 -0.549548 -0.331156 -0.767028 0.700265 -0.668417 -0.250694 
0.445303 -0.815013 -0.370755 0.232211 -0.761171 -0.605555 0.339152 -0.795618 -0.501964 
-0.0475947 -0.584839 -0.809752 -0.321829 -0.514418 -0.794859 -0.377525 -0.53118 -0.7585 
-0.528916 -0.387063 -0.755268 0.278607 -0.776572 -0.56508 0.0189724 -0.668124 -0.743808 
-0.315429 -0.554 -0.770447 0.305017 0.790166 -0.531604 0.296011 0.816156 -0.496253 
0.338212 0.78336 -0.521497 0.0306471 0.866116 -0.498903 -0.0195022 0.915664 -0.401471 
-0.366301 0.883808 -0.291045 -0.401485 0.880388 -0.252442 -0.446215 0.865231 -0.228622 
0.410156 0.701556 -0.582745 0.416265 0.721308 -0.553569 0.449222 0.699223 -0.556136 
0.389898 0.66273 -0.63935 0.396752 0.723715 -0.564645 -0.724774 0.687695 0.0421761 
-0.791041 0.601617 0.110956 0.552859 0.553465 -0.622916 0.550675 0.620455 -0.558384 
0.593759 0.568968 -0.568968 -0.844961 0.504499 0.177541 -0.829917 0.491513 0.263919 
0.662804 0.342811 -0.665712 0.651517 0.440353 -0.61775 0.678609 0.343897 -0.649018 
-0.846765 0.464789 0.258768 -0.920246 0.339736 0.194232 0.589515 0.807702 0.00946349 
0.693757 0.719002 0.0416849 0.118172 0.988913 -0.0899298 -0.165356 0.96689 -0.194372 
-0.441224 0.75862 -0.479393 -0.386764 0.823758 -0.414531 -0.428939 0.767671 -0.476123 
0.692163 0.0856368 -0.716643 0.708358 0.0846468 -0.700759 -0.995488 -0.0284303 0.0905277 
0.813156 0.55656 0.17035 0.830275 0.470037 0.299514 -0.497721 0.583035 -0.64214 
-0.460404 0.684372 -0.565388 -0.579066 0.56226 -0.590379 0.703283 0 -0.71091 
0.707107 0 -0.707107 -0.903553 -0.42734 0.0311788 0.791158 0.491252 0.364336 
0.748645 0.54198 0.381822 -0.647399 0.389677 -0.655001 -0.597446 0.541415 -0.591547 
-0.716798 0.333689 -0.612251 0.703076 -0.0242769 -0.7107 0.707086 -0.0075854 -0.707086 
-0.840783 -0.53636 -0.0734938 -0.858636 -0.512552 -0.00583774 0.822596 0.372933 0.429252 
0.833547 0.344393 0.431963 -0.735278 0.331743 -0.591026 0.652794 -0.132324 -0.745889 
0.683745 -0.0786423 -0.725471 -0.80339 -0.532326 -0.266822 -0.833162 -0.503744 -0.228216 
0.862255 -0.152812 0.482872 -0.722765 0.316577 -0.614321 -0.719598 0.239843 -0.651655 
-0.712963 0.270225 -0.647041 0.563877 -0.27745 -0.777858 0.587512 -0.247032 -0.770587 
0.550811 -0.306326 -0.776384 -0.85489 -0.477427 -0.203043 -0.834391 -0.503528 -0.224168 
0.836817 -0.264402 0.479404 0.836817 -0.479404 0.264402 0.797116 -0.42697 0.42697 
-0.705823 0.0602335 -0.705823 -0.717094 0.0779979 -0.692599 0.561238 -0.309039 -0.767794 
0.552496 -0.333015 -0.7641 0.553868 -0.304687 -0.774853 -0.74563 -0.578609 -0.330527 
-0.789733 -0.559295 -0.252012 0.795605 -0.518144 0.31391 -0.703283 0 -0.71091 
-0.71091 0 -0.703283 0.441001 -0.485451 -0.754888 0.463156 -0.478503 -0.746004 
0.168509 -0.635421 -0.753555 0.0167458 -0.707008 -0.707008 -0.121267 -0.734909 -0.667235 
-0.447971 -0.761823 -0.467919 -0.497122 -0.759513 -0.419535 -0.762612 -0.591649 -0.261486 
0.809623 -0.517858 0.276285 0.848103 -0.490049 0.201431 -0.692163 -0.0856368 -0.716643 
-0.708358 -0.0846468 -0.700759 0.427954 -0.514547 -0.743033 0.122566 -0.691995 -0.711421 
-0.0172332 -0.735472 -0.677336 -0.174945 -0.782337 -0.597782 -0.464758 -0.772036 -0.433543 
0.774364 -0.595798 0.213038 -0.658071 -0.340363 -0.671636 -0.669755 -0.33941 -0.660476 
0.754648 -0.621956 0.208991 0.615542 -0.787897 -0.0180724 0.622993 -0.782225 0.00183478 
-0.547547 -0.547547 -0.632759 -0.582733 -0.551179 -0.59718 -0.637988 -0.43121 -0.637988 
0.621647 -0.783296 -0.00149848 0.509647 -0.80358 -0.307441 0.202983 -0.807948 -0.553188 
0.347057 -0.826745 -0.442768 -0.262977 -0.726531 -0.63482 -0.370449 -0.705934 -0.603676 
-0.55369 -0.593161 -0.584454 0.24079 -0.837848 -0.489929 -0.246491 -0.766113 -0.59356 
0.39744 0.801376 -0.447032 0.358784 0.863275 -0.355008 0.420985 0.827395 -0.371738 
0.128151 0.977562 -0.167181 -0.168402 0.984702 0.0447588 -0.515932 0.825996 0.227036 
-0.561566 0.79238 0.23828 0.569372 0.715865 -0.40417 0.57208 0.745429 -0.342141 
0.597464 0.726372 -0.339736 0.464431 0.804182 -0.370939 -0.756392 0.574835 0.312148 
-0.778735 0.542362 0.315301 0.645818 0.612347 -0.456017 0.65874 0.657375 -0.36595 
0.666832 0.637754 -0.385492 -0.848053 0.445451 0.287019 0.731305 0.430025 -0.529407 
0.72884 0.472773 -0.495256 0.736815 0.443555 -0.510257 -0.843862 0.39533 0.362784 
-0.848324 0.374397 0.374397 0.661855 0.692349 0.287404 0.676094 0.677766 0.289016 
0.225372 0.968898 0.102192 0 0.999592 -0.0285475 -0.156831 0.973492 -0.166485 
-0.428155 0.779456 -0.457309 -0.377983 0.845137 -0.377983 -0.457309 0.779456 -0.428155 
0.722534 0.119225 -0.680977 0.742073 0.165942 -0.649455 -0.935956 0.067754 0.345536 
0.884051 0.351193 0.308411 -0.590739 0.561516 -0.579419 -0.567664 0.681231 -0.462257 
-0.651731 0.565742 -0.505156 0.707086 0.0075854 -0.707086 0.7107 0.0242769 -0.703076 
-0.925068 -0.335655 0.17772 0.779158 0.442462 0.444004 0.814652 0.371487 0.445353 
-0.705839 0.363182 -0.608186 -0.67844 0.459154 -0.573495 -0.687594 0.380416 -0.618465 
0.707107 0 -0.707107 0.707107 0 -0.707107 -0.882738 -0.469799 0.00789383 
-0.899851 -0.420863 0.114645 0.821228 0.340921 0.457556 0.739104 0.27629 0.61432 
0.775282 0.352299 0.524236 -0.723248 0.335346 -0.603701 -0.702308 0.328205 -0.6317 
0.703076 -0.0242769 -0.7107 0.707086 -0.0075854 -0.707086 -0.863228 -0.500604 -0.0650614 
0.833328 -0.14094 0.53451 0.773129 -0.053968 0.631949 -0.764286 0.273092 -0.584199 
-0.750511 0.296051 -0.590836 -0.781602 0.270667 -0.561994 0.652794 -0.132324 -0.745889 
0.687387 -0.0790611 -0.721976 -0.842873 -0.537693 0.0212408 -0.842791 -0.536861 -0.0385006 
0.795605 -0.31391 0.518144 -0.769898 0.105933 -0.629314 -0.813921 0.143402 -0.563 
0.559086 -0.3043 -0.771248 0.589805 -0.271705 -0.760465 0.543491 -0.343162 -0.766066 
-0.827803 -0.541498 0.146707 0.796079 -0.364378 0.483204 0.796079 -0.483204 0.364378 
0.80202 -0.4245 0.420196 -0.727617 0.0172538 -0.685767 -0.75494 0.0526983 -0.653673 
0.535284 -0.358903 -0.764631 0.500475 -0.455071 -0.736502 0.532888 -0.452446 -0.715069 
-0.703813 -0.709707 0.0310337 -0.808698 -0.571802 0.13802 0.759268 -0.493292 0.42447 
-0.724468 -0.0944999 -0.6828 -0.750719 -0.117885 -0.650019 0.476426 -0.565207 -0.673468 
0.303779 -0.771904 -0.558464 0.344227 -0.751779 -0.562437 0.0621793 -0.819942 -0.569059 
-0.138572 -0.872529 -0.468499 -0.384994 -0.907141 -0.169927 -0.425112 -0.895549 -0.131423 
-0.630273 -0.776349 -0.00613222 0.718419 -0.525106 0.456221 0.751034 -0.601419 0.272476 
0.673079 -0.565247 0.476929 -0.719337 -0.344672 -0.603122 -0.733001 -0.354466 -0.580572 
0.295198 -0.806508 -0.512253 0.0486793 -0.900276 -0.432588 -0.178718 -0.93026 -0.320432 
0.715511 -0.575853 0.395521 0.630852 -0.775711 0.0172994 0.74859 -0.584631 0.312761 
-0.592317 -0.553856 -0.585153 -0.61192 -0.543944 -0.574177 -0.701206 -0.406065 -0.586022 
0.675014 -0.732855 0.0853245 0.636497 -0.769148 0.0573072 -0.527533 -0.686994 -0.499749 
-0.535128 -0.695651 -0.479278 -0.574615 -0.604252 -0.551995 0.381915 -0.923988 -0.0196866 
-0.0947326 -0.984524 -0.147442 -0.500562 -0.770666 -0.394349 0.51164 0.85857 -0.0328877 
0.51101 0.859439 -0.0152556 0.513908 0.857692 -0.0162251 0.23105 0.972461 0.0305921 
-0.108763 0.979842 0.167571 -0.409995 0.814744 0.409995 -0.5435 0.78069 0.308434 
-0.473588 0.749433 0.46267 0.607301 0.788515 -0.0971025 0.634499 0.757717 -0.152565 
-0.568813 0.62194 0.538185 -0.743849 0.556431 0.370233 -0.619451 0.573543 0.536031 
0.642118 0.73604 -0.214311 0.64003 0.701999 -0.312346 -0.712752 0.504518 0.487285 
-0.766582 0.454066 0.454066 0.656223 0.66422 -0.358027 0.718849 0.549551 -0.425736 
-0.843862 0.362784 0.39533 -0.848053 0.287019 0.445451 0.671758 0.677339 0.299922 
0.597148 0.723555 0.346239 0.417267 0.879836 0.227546 0.0993429 0.994353 0.0373162 
-0.0285359 0.999185 -0.0285359 -0.166485 0.973492 -0.156831 -0.476123 0.767671 -0.428939 
-0.414531 0.823758 -0.386764 -0.479393 0.75862 -0.441224 0.764716 0.2961 -0.572306 
0.756253 0.403582 -0.514979 0.772876 0.331029 -0.541371 -0.871626 0.147383 0.467489 
-0.857213 0.171202 0.48567 0.774182 0.421077 0.472584 0.812202 0.34131 0.473113 
-0.636653 0.557121 -0.533188 -0.578853 0.625151 -0.523561 -0.633305 0.562954 -0.531044 
0.725471 0.0786423 -0.683745 0.749282 0.132925 -0.648774 -0.918844 -0.160419 0.360543 
-0.912603 -0.112235 0.393141 0.846959 0.227601 0.480478 -0.724754 0.389414 -0.568409 
-0.716621 0.437696 -0.543026 -0.748832 0.391919 -0.534462 0.707086 0.0075854 -0.707086 
0.72293 0.0246946 -0.69048 -0.921825 -0.34566 0.17538 0.777473 0.243933 0.579684 
0.844386 0.165672 0.509475 -0.726827 0.302805 -0.616467 -0.787586 0.227863 -0.572527 
0.707086 -0.0075854 -0.707086 0.72293 -0.0246946 -0.69048 -0.858985 -0.500966 0.105728 
0.810601 -0.0144738 0.585421 0.847318 0 0.531086 -0.824365 0.163299 -0.541992 
0.723362 -0.0492988 -0.688707 0.75323 -0.085377 -0.652193 -0.760304 -0.628558 0.163866 
-0.809012 -0.575549 0.119345 0.808532 -0.28075 0.517161 0.83913 -0.216721 0.498892 
-0.820148 0.230346 -0.523735 0.731192 -0.184344 -0.656791 0.79472 -0.197391 -0.573983 
-0.795699 -0.559024 0.233144 -0.759121 -0.560249 0.331446 -0.759151 -0.578794 0.297805 
0.777773 -0.415977 0.471203 -0.817385 0.19509 -0.542053 -0.811225 0.137201 -0.568411 
-0.827803 0.146707 -0.541498 0.714818 -0.437143 -0.545839 0.497986 -0.446721 -0.74327 
0.712474 -0.441202 -0.545639 -0.664812 -0.658471 0.352761 0.739844 -0.478131 0.473309 
0.728521 -0.516095 0.450447 0.707444 -0.548966 0.445152 -0.808911 -0.156243 -0.56679 